ITEM: TIMESTEP
0
ITEM: NUMBER OF ATOMS
20181
ITEM: BOX BOUNDS xy xz yz pp pp pp
-1.1250000000000000e+00 1.2500000000000000e+02 -1.1250000000000000e+00
0.0000000000000000e+00 1.2500000000000000e+02 0.0000000000000000e+00
0.0000000000000000e+00 1.2500000000000000e+02 0.0000000000000000e+00
ITEM: ATOMS c_clusterCheck
1
2
3
4
5
5
7
8
9
10
11
12
13
13
15
16
17
18
19
20
21
22
22
24
25
26
26
28
29
30
30
32
33
34
35
36
36
38
38
40
40
42
43
44
45
46
47
47
49
50
51
51
53
54
55
55
57
58
59
60
61
61
63
64
65
66
66
68
69
70
71
72
73
74
75
76
76
78
79
50
81
82
83
84
85
86
87
87
89
90
91
92
93
93
95
95
97
98
99
99
101
101
103
103
105
34
34
108
108
110
111
112
112
114
115
116
116
118
118
120
120
122
123
124
85
126
127
128
129
130
131
131
133
134
135
136
137
137
139
140
141
142
143
143
128
128
147
148
148
150
150
152
153
154
155
156
157
158
159
160
160
162
163
164
165
166
28
168
169
169
171
172
173
174
175
176
177
177
179
180
181
182
183
183
185
185
187
188
189
190
190
192
193
194
194
22
197
198
199
200
200
202
202
204
205
206
207
70
209
210
211
212
58
81
215
216
217
218
219
219
221
222
223
223
207
226
227
228
229
230
231
230
230
234
235
182
237
238
239
240
241
242
242
244
244
246
246
248
249
91
91
252
253
254
38
38
257
16
259
260
261
262
263
264
265
265
267
267
269
269
271
271
273
274
274
276
276
278
279
280
280
282
282
284
284
286
287
288
289
85
291
292
292
294
126
126
297
297
299
299
301
301
303
304
305
306
307
307
309
309
311
311
313
313
265
183
183
318
319
320
320
322
322
324
325
221
221
328
329
187
331
173
173
228
335
82
337
338
339
110
341
342
343
344
345
346
25
25
349
267
351
351
353
353
355
355
357
358
358
360
360
362
363
364
365
366
137
368
368
370
371
372
372
112
112
376
376
378
379
379
381
382
383
384
385
386
387
388
140
139
391
392
131
131
395
396
397
398
399
400
401
402
403
404
404
406
407
408
409
410
410
126
126
242
415
12
12
418
419
87
421
422
423
424
322
322
427
427
429
430
431
431
433
434
435
436
437
150
439
440
441
442
443
396
396
50
50
230
134
450
450
115
453
454
455
456
456
338
459
90
461
253
463
464
465
465
467
468
469
469
471
471
473
474
475
476
410
478
479
320
481
481
483
99
99
8
487
13
13
490
269
492
493
494
494
496
496
494
494
500
500
137
79
504
505
505
507
257
509
510
511
512
513
514
515
515
517
518
415
415
521
510
523
524
525
526
527
528
246
530
530
532
533
534
535
436
436
368
539
540
541
542
219
441
299
546
66
548
549
549
551
551
553
553
555
556
257
257
559
559
561
561
563
563
565
565
567
246
528
570
571
572
572
32
32
360
360
578
579
580
64
404
583
584
585
586
436
588
589
590
591
592
593
594
40
596
567
567
599
86
601
318
603
604
605
606
607
607
609
610
82
612
612
265
182
616
617
618
140
620
621
622
623
624
625
626
177
628
629
630
631
632
633
633
635
636
637
637
518
198
641
158
643
644
645
645
647
648
396
396
11
652
652
85
85
609
609
658
202
58
58
662
663
664
664
97
667
668
669
670
671
672
673
673
675
676
677
678
679
679
25
25
683
561
324
324
687
687
263
263
691
691
527
644
644
696
696
698
699
476
476
234
234
704
66
706
707
620
620
710
710
712
713
714
715
716
645
645
719
719
721
722
723
724
105
105
669
669
729
730
731
732
632
632
163
736
737
738
738
740
741
742
743
744
744
9
747
748
748
349
267
752
753
754
755
10
757
757
759
759
761
762
696
696
765
169
767
768
769
570
713
713
773
774
775
775
777
778
633
679
781
43
43
784
784
786
433
788
788
790
791
792
422
794
794
796
796
798
148
800
81
81
803
804
805
337
807
807
790
790
811
408
813
747
169
169
817
378
819
567
567
311
311
824
824
826
826
687
541
830
679
832
706
834
835
507
507
211
211
476
841
841
168
168
807
403
722
848
90
90
851
851
82
82
231
231
857
858
859
860
318
862
862
864
864
866
264
868
869
647
871
464
873
410
410
876
876
50
50
880
881
882
337
337
885
885
887
888
889
890
891
851
893
894
148
896
897
897
422
422
901
902
166
904
905
906
906
908
909
910
910
912
913
437
437
126
126
918
346
108
108
922
923
924
918
918
578
578
929
930
931
932
264
264
935
286
848
848
939
228
941
942
943
943
790
946
777
422
422
950
24
851
953
954
954
105
755
710
710
252
252
962
962
964
964
966
967
968
338
338
971
972
973
973
975
975
977
977
979
160
124
124
307
307
985
986
987
988
672
990
279
992
993
994
995
628
676
998
998
180
1001
800
1003
108
108
1006
1007
1008
371
371
1011
1012
1013
1014
240
1008
1017
1017
1019
1
260
260
1023
436
1025
1025
230
230
1029
252
252
1032
1033
986
986
1036
1036
1038
1038
303
303
1042
372
1044
1045
130
130
1048
1048
1050
1051
1052
1053
1054
1050
1050
180
1058
1059
1059
1061
1062
1063
664
1065
1065
1067
1067
1069
1070
1071
1072
1073
235
235
715
1077
790
1079
1080
1081
1082
1083
1084
1084
1086
1086
1088
1088
43
572
1092
1093
1093
1095
292
1097
1097
1099
1100
1101
1102
1059
1104
173
173
210
1108
841
1110
570
1112
1113
1114
973
954
954
386
1119
434
1121
1122
507
182
182
1126
126
355
1129
30
1131
1132
1133
784
1135
1135
1137
1138
1139
1140
1141
1142
1143
126
12
1146
1147
1148
790
790
1151
1152
1153
1153
572
1156
1156
971
1159
200
200
1162
1162
1164
1164
1166
496
108
108
765
765
1099
10
738
61
769
1177
1177
476
1180
1181
1182
1166
1184
851
851
1187
1187
311
311
150
150
1193
1193
1195
1196
76
1198
1198
108
108
1202
1203
1204
1204
1206
1207
26
1209
1210
1211
1212
278
1214
1214
1216
1216
1218
1219
1220
1221
679
1223
1223
1225
1226
1050
1050
409
1230
1231
1231
1233
1233
1235
1236
1237
1238
1180
1240
1241
219
219
1244
1245
379
379
1248
1248
1250
1251
1252
1045
1254
1254
1256
1257
1241
535
824
1261
524
1263
1264
1265
541
1187
1268
1269
1270
1271
1271
1273
1274
906
906
765
765
1279
1280
1281
1282
335
706
706
1286
1287
1288
1288
231
231
1062
1007
610
476
490
1297
410
410
1300
1301
481
1303
1303
1305
1305
1307
1308
1309
496
28
1312
1313
1313
1218
973
897
897
658
658
1321
1322
1323
1324
307
1326
1326
364
364
1330
1331
1198
1198
1334
1335
1336
1336
1166
1339
38
38
1342
1082
1344
1345
1346
559
1146
1038
1038
1351
1351
1353
1354
1355
1355
1357
1357
583
490
1361
1362
715
1364
237
65
65
431
431
1370
1371
1372
1372
636
1375
1376
1377
313
430
672
672
337
337
1384
1385
267
158
158
800
1390
1164
744
235
235
1395
1396
1397
1397
115
115
1401
1402
342
342
691
1406
752
546
546
418
1411
1412
1413
832
832
1416
1417
1418
1419
679
395
1422
1423
1424
1424
1313
1313
174
1429
177
1218
1218
1209
26
1435
1435
765
971
1439
1440
747
747
1443
322
755
755
765
990
1449
1450
1451
1452
1453
784
784
1181
297
1458
1459
1460
1460
313
313
1210
286
1466
1466
857
1469
1470
1471
342
1307
1474
1475
1476
1477
3
533
533
1481
1481
973
973
623
1486
1487
1351
778
778
652
1492
1493
1494
1495
110
110
1498
1499
1080
748
38
729
358
358
174
174
1344
1344
1510
1510
8
1513
1513
1515
775
1517
1518
1449
1449
629
629
36
1524
1525
1525
1527
1527
1529
1530
86
507
1533
1534
1281
200
200
32
1539
1429
1541
1542
1543
1544
1545
1546
76
360
360
202
902
1552
1553
1162
197
7
513
513
908
908
670
670
1563
1564
1565
513
1546
1546
1038
1038
1571
1572
1573
1574
1575
1576
1576
1451
1451
1580
1581
561
561
1584
1303
559
559
1588
604
1590
1590
1592
1593
1594
263
430
182
182
235
235
1601
1424
264
1604
1248
1166
1607
1608
1470
1470
1611
1612
182
182
339
339
28
1618
1618
105
105
535
535
777
305
99
99
1628
1628
1630
1630
1632
1553
1634
1635
1219
1219
456
9
9
1006
1642
1643
1643
1486
376
5
5
1649
1649
1651
231
1653
1654
1655
1656
1657
1658
1659
687
687
101
1663
1664
1665
1666
455
1668
1668
1670
1671
279
279
1674
342
157
157
464
464
490
1681
1079
136
136
1685
1686
469
469
1689
1689
1209
1209
355
1694
1695
1696
1364
1364
512
512
1701
43
43
1704
1705
1706
1707
1708
1709
1710
704
338
337
1079
1715
532
532
1397
1397
43
43
715
1723
1723
1725
1726
1727
1728
1177
1177
1731
1732
1733
528
1735
1736
623
623
128
128
385
385
1686
1744
1745
1590
1590
834
834
1750
1750
1752
1752
365
365
319
1757
781
422
1760
1761
604
604
1764
1008
1766
897
747
51
1770
1771
610
563
563
1775
605
126
168
1072
1072
279
279
1355
207
1785
1786
1787
1788
1788
1790
1029
1792
25
1794
1590
1219
1219
299
299
1800
1800
128
1803
679
679
244
561
1808
1809
1810
1141
1812
1813
1813
221
222
10
1818
670
671
93
93
778
778
769
570
1827
309
1829
355
355
1832
715
971
1835
1836
1837
673
1839
90
1841
713
1843
857
857
464
355
404
1849
1850
1851
177
1853
433
1855
1659
1857
583
1658
1658
1861
1862
126
126
433
173
464
464
494
1870
1871
1872
128
421
160
1876
939
1878
1879
476
476
1882
1883
158
158
192
192
465
1889
1890
918
918
885
885
620
1896
1897
1898
142
142
1901
1901
1357
796
706
66
1659
1659
753
753
1911
510
510
1914
1915
240
240
1377
1919
179
179
1922
1922
1924
1221
28
28
1928
1929
1930
1931
434
794
794
1935
1036
49
1202
43
43
1419
1942
1943
1944
1012
1012
180
1948
1949
1950
1053
1223
309
1210
1210
1956
1957
148
148
410
410
1962
328
469
469
263
263
513
513
1541
1541
1761
43
1513
530
1976
669
669
1979
1980
1981
556
1133
1133
84
1061
1987
1987
147
147
1862
1862
4
136
1987
1996
1996
239
71
1086
2001
279
990
2004
2004
2006
2007
1324
1324
2010
2010
2012
1470
1326
409
368
1254
1254
309
309
906
906
2023
2024
341
1785
2027
2027
2029
2029
775
664
1251
2034
134
2036
549
2038
2038
2040
2040
391
392
621
621
962
962
410
410
979
979
788
788
160
421
4
2057
2058
114
114
5
5
2063
2063
1231
1231
2067
644
2069
2069
187
939
579
2074
2075
2075
95
95
246
198
518
2082
2083
1182
2085
292
292
1757
1757
313
313
2092
465
1376
1376
2096
1193
2098
76
126
222
222
305
305
110
110
588
588
966
2110
2111
583
303
303
786
786
788
234
2074
378
120
941
941
518
198
2126
1202
2128
2128
1086
1086
1269
2133
2134
185
2136
2137
2138
2139
800
800
807
607
607
1397
1397
427
427
2149
2150
180
2152
2153
2153
2155
2156
276
276
1419
1649
2161
2162
2163
2164
2164
403
110
2168
2169
2170
441
2172
230
943
943
954
954
2178
2178
50
50
2182
2182
1235
652
652
2187
2187
47
47
171
171
9
9
2195
1630
360
360
2199
2200
2201
2202
832
2204
130
2206
441
126
126
476
476
2212
2213
231
231
2216
2216
32
1254
647
647
584
409
169
169
781
2227
2228
2229
2230
813
813
126
126
2235
410
1251
1251
2239
2240
2241
2241
1896
1896
2245
2245
1524
465
465
765
765
2252
2252
1574
1574
2256
1402
786
2259
15
15
1545
1545
2264
2264
82
82
360
2269
2270
1334
1335
171
2274
353
2276
1344
1344
510
510
180
180
395
679
1546
1546
2287
2288
673
535
1542
139
2293
143
143
2296
902
2298
2299
2300
2301
192
904
641
158
2306
2306
2308
2308
1498
2311
2311
1146
1146
436
2316
496
2318
49
49
2321
2321
2323
2323
2325
1212
257
257
2329
1486
2331
2332
2332
303
1355
2336
2336
1231
1231
2163
2341
136
2343
719
719
1553
1553
297
297
2350
322
2352
114
114
70
70
1792
2358
1202
1460
229
2362
198
198
2365
2366
110
110
1723
1723
652
2350
81
2374
430
2376
2376
182
392
2380
2381
303
2383
2012
2012
979
979
2388
2388
2390
2391
120
120
124
2395
363
2397
2397
430
430
567
567
12
12
2405
2406
15
1202
2409
2410
490
490
240
240
221
588
588
2418
128
2420
69
1750
1750
2424
2424
1515
1515
585
585
605
605
2274
171
528
246
2436
421
421
2439
2440
441
441
2443
2443
2445
2446
1849
1850
1362
1362
2451
1376
228
228
1059
1059
1209
1470
1470
2460
572
687
2463
478
478
1100
954
2468
687
2470
424
395
679
784
784
234
2477
379
2010
282
2481
2481
63
63
910
2004
456
759
670
2490
396
2492
328
328
279
765
85
85
1453
2500
86
2502
95
524
992
1072
1072
1704
1704
415
605
130
2513
620
2515
1271
66
2518
1890
500
2521
2522
1787
1787
87
87
2527
869
1630
2001
2531
2532
1901
1901
1156
521
2537
2538
966
2540
1212
395
395
672
672
1038
1038
2451
1254
465
2551
2323
2323
2554
82
2556
2557
1335
2559
1481
1481
101
1695
2564
504
908
2567
2405
2569
2570
25
1238
1529
1529
408
2576
775
1515
1664
2580
610
1813
637
2584
2584
90
90
1254
2589
2590
2590
409
409
2594
69
2596
2597
1218
1632
2600
2601
2331
455
2604
1254
2606
2607
2608
1402
1402
2611
2612
422
422
237
182
1792
1238
148
1788
2443
2443
1344
2624
43
2626
2627
2628
1061
1449
1449
1542
2298
2153
2635
2636
2636
765
765
897
813
2642
2643
2644
2644
2646
2647
2648
2420
2420
265
265
2653
2653
873
442
2657
324
1668
1668
337
337
2663
1100
47
2666
337
2362
265
2670
1045
620
2673
2674
2675
968
234
150
263
2604
2604
2682
2683
707
2685
2686
2559
2252
715
715
194
194
335
335
2695
2695
1279
2698
2699
1689
2701
2702
2703
219
2110
2110
2069
2069
2110
1099
2711
2712
2713
2178
2715
2716
2717
1256
1256
2720
126
388
388
710
710
160
1377
2728
2729
376
2731
2732
732
732
2735
1949
2737
2737
1271
2740
2741
2742
1395
1395
2745
2745
2747
2747
687
2750
2751
2311
2311
1604
2436
2756
2757
2758
2758
2760
2761
2762
1803
2764
2764
276
273
2768
71
131
2771
150
384
2774
2764
2776
376
2778
607
607
636
2782
2783
2784
2785
2786
140
140
798
798
11
12
1466
1159
2795
2796
392
2798
2799
2800
2801
790
790
42
42
1527
1527
1221
679
116
116
796
1063
386
2815
2815
1695
1695
2819
2820
740
740
2823
2823
228
228
194
1492
2829
2182
1449
2832
2833
2834
257
22
2837
2110
90
2840
2840
2842
2842
1156
521
143
143
365
365
2023
2023
1657
1657
2311
2311
2443
128
2858
53
42
869
869
2863
2864
1193
2866
2867
1590
930
930
2871
1235
768
768
87
1073
454
2878
2879
1071
2881
790
2883
2085
2885
2886
2887
101
101
11
2155
2840
2840
1890
1890
620
620
975
906
2900
2901
194
260
260
318
319
2907
902
2909
322
234
788
2913
2235
4
395
95
95
876
2920
59
474
2923
2924
2924
2644
2927
408
585
521
521
1470
1470
1182
563
1812
1812
490
490
1305
1209
1209
2943
2944
2945
1025
918
918
34
34
252
252
968
968
2955
2956
198
198
1029
1029
995
1214
1214
1949
1949
2316
2316
130
130
1477
1477
2972
2972
2974
2975
645
645
1110
2979
2980
2981
328
1786
1541
183
183
2987
1541
2989
667
732
732
1785
1785
2995
2996
2997
2998
767
2195
3001
3001
1429
1704
1704
724
724
834
3009
3010
3010
388
3013
464
464
1664
2034
3018
474
11
11
212
212
3024
691
1406
368
3028
3029
3029
32
32
3033
2815
173
433
755
105
3039
3040
365
3042
1271
1271
583
207
207
3048
1787
2341
427
351
351
3054
3054
1146
1146
1053
3059
1023
1023
1449
1449
28
3065
1231
706
706
2027
2027
396
3072
3073
994
3075
3076
672
672
189
3080
3081
3082
10
10
108
108
3087
1492
1492
3090
3091
1008
240
2388
2388
918
918
2481
2481
517
517
644
1604
276
2092
3106
2034
30
25
796
3111
1515
360
360
64
65
1929
3118
3119
2376
160
2653
1395
1219
101
101
3127
21
1704
11
1701
546
546
110
3135
3136
3137
3138
3138
729
3141
3054
769
3144
3145
2235
572
1788
3149
973
30
30
1335
1335
3155
410
3157
3158
1701
3160
2110
2110
3163
3164
2745
2745
433
433
3169
3170
450
126
738
1689
1689
860
860
975
975
410
3181
355
1694
202
177
1419
3187
2923
3189
977
3191
2229
979
679
3195
221
1517
645
120
120
3201
3201
221
108
3205
228
439
439
1052
1052
1112
3212
3213
738
738
3216
139
3218
1785
869
869
3222
3222
2564
2564
993
523
43
43
3230
3231
99
99
1732
2306
2306
3237
3238
605
3240
168
3242
2138
507
118
118
3247
418
3249
3250
3251
3252
66
66
24
525
3257
2424
2424
3260
729
3262
3263
465
3265
641
641
3268
1256
869
2308
3272
210
2187
2187
2923
3138
715
169
169
3281
3281
3283
1708
1218
1930
3287
433
3039
3290
1099
1099
1214
1214
2038
2038
1254
2092
3299
897
3301
22
22
3304
3305
3306
3307
3308
3309
110
403
2182
2182
2607
3315
3316
3316
3315
471
464
510
510
2871
2871
2604
3326
3039
1093
1708
5
788
3332
3333
3333
3335
182
3337
461
3339
3201
3201
3250
3111
1097
1097
84
3347
1300
1300
584
409
1813
1813
3354
1788
3356
2178
609
3359
2153
3029
504
3363
401
3365
3366
4
3368
171
1335
2771
2771
4
395
1212
1212
3377
1377
964
964
667
219
219
2010
2010
704
704
136
136
3390
3391
1498
1498
71
70
513
3397
1263
3399
1681
147
47
160
160
3405
3406
1048
1048
1901
1901
3411
1177
3413
1156
3415
3415
897
897
530
505
176
134
2972
3424
3424
621
3427
3428
378
357
3431
142
142
3411
3435
2590
2590
3216
3216
190
190
2405
3443
66
267
349
3447
3448
3449
3450
1181
1708
3453
1362
3455
3456
163
1036
2764
2764
363
363
2657
2657
143
3466
3466
786
3469
2584
3471
1303
1303
265
265
1901
1901
3478
3479
1584
1584
3424
3483
3484
3484
3486
3487
30
954
954
42
137
3493
1565
521
521
1486
1198
752
3222
410
3502
1542
3504
2137
2137
1553
358
358
339
1263
1896
3513
2758
2758
299
299
2034
2034
2138
2138
3522
3213
3524
3524
229
229
148
1164
1323
679
679
672
1362
1108
1108
1704
1704
3539
3539
87
87
864
3544
2069
3546
76
76
621
3308
3308
1324
1324
561
561
3556
3557
475
475
461
461
3562
95
3564
3565
3566
3567
61
61
442
2923
474
3573
3573
3575
3575
3290
3268
1351
1351
378
391
3583
3584
3585
210
279
279
2842
3466
42
935
286
1788
1788
1668
1668
3598
3599
1204
1204
368
368
1362
1362
3606
1686
126
126
2460
710
303
715
715
848
848
3617
3618
851
2074
3621
1530
198
198
3625
3626
1307
1307
1362
1362
99
1668
197
2796
392
3636
3637
1594
1594
1612
1612
3642
3643
572
3645
3646
857
3575
741
3650
3651
139
139
2075
553
553
3657
975
1203
1203
3661
607
505
505
221
3666
391
391
1663
1663
278
765
3249
3249
12
181
181
1809
1809
274
2470
778
1708
3684
2058
246
3687
1326
3689
173
3691
303
1187
3694
541
979
1670
3698
3699
3700
3701
3702
1162
1162
954
954
126
126
748
748
2747
3712
790
790
620
620
3583
128
128
1003
1003
351
351
792
792
267
267
90
90
1649
1419
11
1701
351
3735
3736
2559
632
765
1323
2600
2600
1084
1084
621
621
337
337
183
3290
832
3752
962
962
1081
1081
454
454
1241
881
881
2924
1235
3764
1113
1036
1036
338
338
1344
1344
3281
3281
1045
1045
3776
3777
3778
116
2362
292
292
798
3606
2436
297
337
337
1029
244
893
893
3793
335
1202
50
234
234
9
9
3801
363
792
481
481
3806
3807
3808
2972
3810
3811
1792
1792
2163
2163
3816
3817
142
3435
105
105
355
43
43
53
53
384
3828
3829
3830
3831
798
986
986
3835
3836
3837
3838
3839
410
3841
1513
641
274
2470
990
990
3848
3848
679
679
788
3853
2023
2023
3856
3856
99
99
3860
103
3862
1510
628
496
496
3308
3308
3869
2137
3645
3872
1100
210
3875
3875
168
168
116
116
885
658
507
2138
2308
475
235
610
610
3890
3891
1451
3893
172
172
223
223
676
3899
548
66
158
158
1065
1065
355
3907
3907
1235
309
276
276
246
246
475
475
1470
1470
286
303
3921
3922
3365
2819
1048
1048
2376
824
628
3930
3931
3160
12
3828
3001
3040
3040
229
229
3316
357
3942
3943
744
1164
331
331
1402
376
3950
3951
3952
794
794
1377
1377
636
456
391
391
70
70
10
10
1584
1254
1097
1097
986
280
280
86
15
3974
1036
691
3977
238
238
968
968
2559
2559
2212
2212
1546
1546
241
241
691
3646
858
3875
3875
3995
1708
3039
3449
1785
1785
1732
1668
4003
131
408
408
3684
2058
4009
987
513
4012
99
194
4015
4016
4017
3216
4019
1159
1159
360
360
3024
1451
908
923
415
415
279
279
1362
383
383
3699
3699
4037
4038
4039
2075
1062
4042
732
358
905
905
433
433
1086
1108
706
4052
223
260
260
1517
4057
890
4059
1073
572
1402
1402
607
607
943
2842
418
418
4070
4070
219
3339
1470
42
42
3040
1288
3144
3144
430
430
1065
1065
658
658
3040
3040
337
337
269
4092
2034
273
1251
4070
4070
422
422
492
1377
2443
2443
664
775
1099
1099
687
687
4110
4111
155
51
706
1036
1324
1628
1628
47
237
1059
1059
777
4124
4125
1025
4127
408
337
93
4131
4131
4133
1870
2029
2029
1081
2747
4139
3585
210
3054
3054
1287
1287
1012
140
357
4149
2675
131
1202
1202
2110
90
221
4157
2245
10
4160
158
641
4163
4164
4165
4165
79
78
22
22
4171
527
2376
4174
741
741
150
150
1590
4180
4180
496
496
284
4185
971
971
342
342
4190
4190
2085
2085
464
442
2570
2570
4198
4198
263
274
4202
4203
3187
885
658
187
187
143
4210
2069
2069
973
973
10
126
741
3575
422
422
2601
4222
4222
181
181
4226
687
1377
2653
4017
265
1225
1225
603
603
364
364
1723
1364
794
565
755
169
169
4245
4245
58
58
177
177
2308
2308
71
588
4255
179
4257
3666
2436
1708
794
794
4245
4264
4265
630
630
1695
1029
87
87
869
1670
3524
2751
851
2074
1281
1281
4280
115
386
386
1233
4285
494
234
234
455
1099
76
76
1663
1809
4295
455
4297
2163
2350
322
136
679
950
950
563
1453
1453
1204
1204
455
454
4312
4312
476
476
496
496
1670
4319
4320
1412
2332
3479
496
4325
1254
4327
4327
4329
4329
4331
1395
322
4334
4335
399
4337
4338
2058
2058
971
971
1072
1073
299
2137
180
4348
4348
179
179
2648
2241
1668
4131
930
4357
3875
3875
4360
1065
160
979
943
943
2924
1235
1922
2644
1241
515
2842
744
744
2069
2069
3564
4378
4379
160
1604
2436
371
105
824
824
372
1088
1761
4390
76
2559
2686
768
768
99
99
1216
1137
4400
1113
578
579
2352
2352
1395
4407
4408
3471
322
890
890
535
535
979
603
832
4418
1288
1288
3479
3479
1800
360
679
679
3024
975
4070
4070
935
1362
672
82
82
4436
4437
667
667
4440
4441
379
4443
1065
3776
2352
2352
559
559
2350
2350
1668
765
765
4455
4456
4457
1287
238
238
73
2034
2410
559
517
517
4467
998
1141
1812
176
4472
1357
1202
1202
4476
714
349
267
252
252
73
73
696
3810
4486
2883
396
395
612
4491
4492
2316
889
4495
4495
1156
1156
4499
4165
4501
4502
732
732
3138
3138
786
1108
29
29
2418
128
364
364
461
1135
1135
3839
410
882
882
832
832
819
289
4526
1541
510
510
43
43
4532
2029
187
4535
1181
918
918
28
399
1576
790
1300
4544
2923
2923
2600
2600
169
150
1307
1307
1632
1632
1524
1525
1612
4558
715
179
2395
1269
1269
4564
4565
930
476
2274
2274
4570
82
1429
1429
857
857
3281
3281
1062
1023
1023
360
360
1435
1435
58
388
4587
4587
4589
3191
4591
4592
168
954
966
741
2924
1236
3054
240
1008
53
42
383
384
535
535
1233
1233
155
155
628
4613
678
289
4616
105
885
885
128
3281
4622
1761
1761
4625
1133
4627
4628
365
365
4631
1334
607
607
1576
1576
4637
4638
396
4640
530
995
995
1180
4645
160
2027
572
410
2321
2321
4652
1704
305
305
82
82
778
778
1761
1761
108
280
3240
3839
3839
1770
155
357
357
38
729
1809
1809
500
4676
4677
1322
2644
2644
396
4682
407
409
1326
355
355
331
331
2111
583
1135
1135
1248
1248
73
73
4698
2612
404
1395
1752
1752
794
4705
4320
4707
4708
4709
4709
1159
1159
490
269
1112
1112
932
1827
3564
3564
1211
1210
584
584
553
2195
1630
385
1750
864
864
388
58
43
43
3856
3856
2128
2128
194
194
1059
2241
4190
4190
2029
1397
226
2657
2657
4751
4752
4753
136
379
433
11
11
4759
636
160
160
234
234
2675
4766
510
1649
1649
378
378
4772
667
4774
4774
4776
4776
4778
4779
3700
3699
826
826
1231
1231
4786
658
242
4789
1100
1084
1084
4793
4794
975
4796
788
788
392
1764
355
355
2751
430
246
246
3268
3039
2155
3471
2397
1862
1862
399
166
1362
1362
885
4819
4457
4457
1334
1334
729
729
95
637
408
408
1100
4831
4832
4245
1435
1530
1530
1073
1073
436
436
264
264
4843
652
1515
1515
433
784
2163
2341
4851
234
234
1510
4855
1760
1760
1048
1048
2600
2600
588
439
4864
4865
4591
4591
4868
679
4870
1362
339
975
1362
4875
4875
1575
1575
240
2288
4881
4882
2686
2686
1708
1708
4887
4888
1084
1084
1216
4892
4893
2321
4895
973
973
2747
1
4900
4198
4495
4776
148
4905
1065
3201
401
4909
757
757
4912
59
388
644
644
2564
1252
632
632
546
546
4923
624
3856
3856
2657
2657
2410
2410
753
1092
116
116
4935
4936
4937
4938
4939
143
4941
1254
1254
1254
1254
4946
4947
781
781
454
454
3801
3801
2311
2311
768
4957
3666
860
860
4961
4961
2840
2840
2195
4966
3684
2058
1412
1412
885
885
4973
1628
4975
1668
535
4978
4979
2731
2731
2308
2308
1023
4985
4986
4987
189
4989
187
187
4893
4893
3222
4995
4996
342
971
434
5000
2331
2331
1401
1402
1307
1307
1231
1231
2235
2235
2034
5012
3807
3807
2352
5016
1281
1530
475
313
832
1553
1553
791
791
115
115
784
784
881
5031
2235
2235
2653
2653
307
307
1029
1029
25
120
5042
778
778
15
5046
239
239
5049
371
219
219
148
800
1664
1664
2376
2376
2397
2397
848
1248
2229
5064
1065
5066
4437
990
990
5070
1732
1036
1036
441
441
65
65
1231
1930
3138
3138
155
1059
1059
198
198
160
160
832
832
2321
2321
5093
5094
5095
767
2720
813
5099
3646
95
95
1271
918
346
5106
5107
421
421
15
15
51
51
86
86
1180
476
553
5119
2909
2909
3024
663
676
3333
3333
902
902
66
66
32
450
474
755
181
1545
1659
3087
5139
292
918
3415
1221
3281
1515
2350
5147
5148
3039
1080
1080
5152
388
65
65
3201
3977
1686
1686
1708
1708
134
134
1486
1486
897
5167
5168
757
713
5171
5172
4149
4149
3471
3471
252
252
540
5180
219
219
3848
289
824
1322
379
242
533
42
76
2551
2551
790
790
696
941
2252
2252
1061
5201
76
1025
848
848
189
189
2288
1216
1097
4329
4329
28
29
4476
2362
128
357
5219
384
82
82
5223
517
379
1757
1785
1785
559
800
800
112
5233
207
207
3249
3249
1008
2036
3333
3333
3776
5243
28
28
363
5247
832
832
474
5251
5251
5253
5254
1177
1177
5257
672
987
5260
4245
4245
1135
5264
5265
5266
265
182
630
5270
1723
5272
5273
1686
1686
1097
1097
5278
1890
515
515
551
5152
454
5285
434
434
1397
1397
5290
5290
2111
753
753
5295
906
1704
1704
1943
1943
4851
5302
1704
1704
5305
3875
5307
90
1710
5310
1800
1800
118
5314
97
740
740
5318
5319
738
738
2604
1372
2010
2010
3646
5327
5328
5329
4222
4222
1324
148
1072
1038
1038
1231
1231
1344
1344
5341
2075
1618
1618
906
408
1202
1351
707
707
1594
1594
2316
2316
126
3368
4
525
244
1053
1053
679
679
1708
510
518
518
160
160
174
173
1108
1086
834
834
143
563
563
2741
182
3479
5382
3856
3856
1006
1006
2815
2815
4222
4222
1723
1723
2972
1573
206
226
1202
5398
474
3339
3339
76
143
5404
696
490
490
4893
918
3583
3583
1079
1079
679
5415
5416
28
396
235
5420
437
150
5423
813
2751
313
1113
1466
166
166
71
71
3187
3187
5
5
3484
755
679
2323
2323
3213
2350
2155
11
34
5447
3811
3811
561
1209
1029
1029
3573
3573
2410
2410
5458
3299
724
541
541
2436
2436
670
671
4939
4939
2111
583
305
305
994
1072
1752
1752
5477
101
199
198
1193
5482
5483
1397
226
231
231
436
436
274
396
869
2308
848
848
691
691
791
791
1287
341
962
924
924
358
157
1326
409
3848
3848
3010
748
157
157
376
5516
409
409
5519
1210
126
126
219
732
732
1112
1112
237
237
244
244
223
3807
5534
5535
3316
128
535
535
4245
4245
176
5543
3252
5251
5251
86
86
1187
1355
43
43
257
1435
1003
1003
4039
2341
4327
4327
4
4
244
1029
392
5566
5567
623
623
1248
1248
851
851
5574
147
740
740
192
383
93
5581
1251
1251
5584
741
2405
1231
5588
1083
2584
230
230
276
276
219
5596
13
13
22
1412
433
433
5603
1079
309
309
3080
128
128
2436
2436
1470
1470
2436
2436
26
26
1752
1752
90
90
3213
5623
1211
1211
490
158
1048
5629
90
1686
212
807
807
2029
2029
546
5638
273
5640
2308
5642
351
518
228
939
5647
5648
1336
1704
1704
115
1017
5654
1269
1212
525
5658
5659
2975
2975
935
286
1156
1156
510
510
487
487
410
4348
1901
1668
1668
5675
1708
5677
5678
79
143
297
297
294
294
541
5686
5687
5477
3230
479
464
434
434
139
82
25
25
629
1322
101
101
5477
289
572
2235
1241
2644
1643
2863
873
873
99
2424
2424
11
11
5717
29
5719
5720
5721
158
1419
1649
1079
1079
2909
5728
160
160
5731
5732
229
360
882
2182
1533
3839
410
476
1813
2405
2405
5675
1449
2036
2036
1088
1088
748
3010
1326
2607
160
3339
5756
235
235
791
791
115
115
623
5764
322
322
757
713
433
434
276
276
4892
4892
2212
1023
5777
629
628
391
391
1336
580
324
2657
5786
2350
1307
5789
609
238
5792
704
5794
436
2321
342
342
5799
324
189
189
28
399
313
313
5807
5808
5809
923
5811
2074
2306
2306
5815
5816
977
1604
1604
1943
1943
4892
1216
234
234
732
732
4535
187
995
1221
407
407
1053
1053
719
719
2924
610
5840
260
260
410
478
2410
5846
376
376
2887
305
561
561
1541
1429
923
923
229
229
1395
567
567
1362
1361
5219
384
3201
1065
110
5869
71
70
3651
3651
320
320
5876
517
5878
1657
114
1477
1113
990
5251
3155
5886
357
357
4
4
1050
1050
433
784
1254
1254
2235
410
2352
5900
4222
738
738
61
500
194
194
5908
85
2646
2646
2657
253
1689
5915
5916
5917
5918
273
163
1305
4165
1212
525
4893
4893
1067
5251
1223
464
1080
5932
360
360
79
79
95
95
5939
2321
128
128
664
1362
1362
5946
5947
5948
320
5950
954
126
126
687
687
1498
5957
3466
5959
2972
2972
166
5963
943
126
126
512
512
607
607
2590
403
5973
5974
2823
4285
5977
5977
265
265
5981
1029
5983
388
4180
1704
1704
5988
4486
244
244
1271
1271
1498
1498
1533
4222
5998
246
1079
1079
3539
3539
6004
6005
1377
5251
1164
1541
1787
6011
6012
4709
6014
715
715
637
637
1827
1827
2352
2352
5251
5251
124
124
11
252
252
4676
4676
2774
2774
4070
4070
1565
1565
798
798
561
6041
6042
6043
893
893
1533
605
744
358
192
1209
1890
732
732
1604
1604
1786
6058
629
629
2436
2436
143
143
990
6066
902
1193
464
6070
328
4947
4947
910
910
2245
2245
732
732
1670
752
6082
6083
6084
126
257
257
1079
1079
353
1193
1241
4190
4190
2352
6096
6097
6098
1223
6100
1081
1081
585
6104
1219
1219
5977
5977
607
738
433
724
724
6114
2216
3606
3606
421
2321
2163
2163
2842
6123
6124
6124
168
126
25
25
6130
6131
971
253
253
2720
9
4285
494
6139
6140
4486
4486
1061
6144
1209
1209
294
294
3856
2972
353
353
36
2153
2153
6156
3138
2352
2352
6160
1632
4312
4312
1223
1223
6166
1492
392
391
669
669
578
578
2012
190
2405
1453
1453
372
372
1198
1198
252
252
540
2063
6187
722
6189
4198
2420
2420
1449
1182
593
1527
3811
246
246
6200
32
3187
3187
3082
3082
355
3195
1263
6209
719
719
4947
4947
34
34
2758
5477
101
6219
6220
219
219
1553
738
1221
1221
1689
1689
6229
572
200
200
6233
971
609
609
1525
1752
2311
6240
6241
223
6243
2584
2584
2128
2128
4285
395
3222
3222
6252
4776
4587
3564
1081
1081
2264
3661
6260
1219
1219
4131
4131
528
528
115
6268
1449
6270
3666
3666
2137
2137
6275
6276
2252
2252
6279
379
6281
246
246
3281
3281
431
6287
530
530
464
6291
418
6293
8
8
197
6297
307
307
381
279
279
26
1209
441
6306
6005
433
471
800
588
239
1216
1216
3651
79
6317
6318
305
305
28
355
222
1542
1542
252
252
6328
4776
292
292
6332
6333
1193
1193
6336
6336
198
198
1336
1336
1326
706
66
807
807
6347
6347
523
523
1704
1704
1324
1324
667
667
4893
160
567
567
142
142
1689
1406
3201
6366
1406
1202
1202
1402
1402
71
70
6374
6375
5219
5219
1658
6379
6380
6381
1553
1552
707
541
541
1254
1254
3201
3201
2128
2128
108
108
6395
231
6397
421
3848
3848
2460
2460
1377
1377
893
1565
1565
6408
240
437
169
706
706
4645
4645
6416
1061
6418
2264
1177
1177
1271
1112
410
410
292
1377
1088
1081
6430
2764
2764
391
391
1088
729
6279
6098
1553
1552
476
476
126
126
442
487
6447
561
561
392
392
11
2155
322
322
6456
6457
908
908
572
572
301
6463
6464
160
6466
4935
289
1050
1050
43
43
4285
494
6475
6476
2252
2252
1241
1241
3080
6482
6483
2229
395
395
5647
5647
171
2245
2245
1231
1231
399
399
6496
2589
2012
311
1979
5675
585
2341
517
517
2069
2069
210
954
1397
65
65
6513
6513
6515
559
6517
6518
6519
1203
99
99
1704
1704
864
864
341
101
1166
834
1159
246
246
1112
1112
160
160
935
935
2604
2063
1065
5567
6544
399
370
6332
768
6549
732
732
767
1451
6554
4245
4245
6557
624
2138
2138
3195
3195
163
163
1658
1658
2023
2023
2745
2745
230
6572
465
364
364
99
99
6578
6579
2636
2636
2029
2029
126
126
629
1322
1254
2737
979
979
889
889
9
169
169
6597
6598
824
628
3684
3684
732
732
1658
1658
6607
260
6609
6610
851
2796
1187
1187
1182
1108
210
355
3195
3080
3080
1322
1322
890
1689
5070
5070
150
150
1216
1216
1251
273
240
240
1594
5677
6638
584
584
6641
6642
6643
6644
6645
6646
1099
1099
238
609
126
1231
4149
322
6655
6656
1202
8
1745
6660
185
2436
2728
1003
1003
4437
4437
1281
1281
1355
6671
2034
2034
1406
1406
2607
408
246
2010
5290
2395
2395
379
784
6685
6685
528
6688
24
24
3449
3449
1524
1524
4613
676
6697
910
748
2397
2397
364
364
6704
578
6706
6707
6708
1435
6710
6711
620
620
1053
3839
6100
421
450
450
2397
238
6722
6380