LAMMPS data file via write_data, version 23 Jun 2022, timestep = 17250000

20181 atoms
2 atom types
9610 bonds
1 bond types

0 125 xlo xhi
0 125 ylo yhi
0 125 zlo zhi
-34.375 0 0 xy xz yz

Masses

1 0.1
2 0.01

Bond Coeffs # fene

1 0.05 60 0 1

Atoms # bond

9730 1 1 -6.778350899487114 60.51292245357543 18.21622550452843 202 0 0
7763 1 1 40.55855738255639 41.22502714160409 4.325885691768527 -119 1 0
6241 1 1 44.291218076401904 56.135353568781596 4.3338820273171015 503 0 1
8992 1 1 5.523835790698035 1.2459923482494688 9.023577626201295 486 3 1
4943 1 1 -5.496347935536727 32.63375211632145 0.9654525611966821 -117 1 1
17723 1 1 39.297770687267636 45.43537685028087 4.435621972687913 289 0 1
2397 1 1 -16.336127181807495 61.17099328717522 6.969748731879742 -298 2 0
9731 1 1 -6.167542816096795 61.07213530634429 18.705740292657904 202 0 0
14705 1 1 -2.3219704414869 28.140220261347814 13.563757321388465 -380 2 -1
11607 1 1 18.609243375386345 0.30302595713159897 20.429343020241323 14 0 0
1431 1 1 -14.06005360916371 60.54954250447362 8.634801612404804 227 2 -1
2230 1 1 1.5564455590314363 15.931651894927803 20.87687075595738 332 0 2
14017 1 1 -1.2329880920546712 15.299799450866209 20.372776376589133 -207 1 0
9396 1 1 -0.5395767087072456 14.93759285907636 21.912727681831296 -34 -1 -1
9191 1 1 14.020416590516422 62.411413495318484 21.10209815407467 -493 0 -1
146 1 1 -0.01761605087370821 28.369644119535863 13.743442425043765 332 1 -1
13486 1 1 53.72318288900752 19.637455346365826 7.353998864344643 -26 0 -1
15637 1 1 -15.547231124653058 61.41198710813767 8.289954779243882 50 0 1
16495 1 1 -4.016846304608591 15.079086787374946 2.66270141236077 -476 1 1
5655 1 1 19.657349203006547 10.37065055837551 0.8919915018973148 379 0 0
8991 1 1 2.1801044800907996 1.3214892172921295 9.94715393131614 486 3 1
3466 1 1 19.09475953417073 3.435591484478032 6.469804904400732 66 0 1
5648 1 1 -3.2367392410630007 38.426861367120594 0.9048769920463915 271 0 2
16804 1 1 51.126304262318435 29.171870431125857 1.5367469834838337 -22 -1 0
7290 1 1 -8.105520101283652 61.69426345815535 22.00373149384949 -467 -1 0
6140 1 1 40.647664967878576 61.833591786569905 22.63463798252671 177 0 0
10410 1 1 1.5627353303226974 0.7170348426170605 8.48773044251596 155 0 1
18781 1 1 -0.6583050355755171 18.715224864317776 21.248355397747616 207 1 -1
1855 1 1 2.1922466001375644 1.0562222848325864 23.54924509509102 159 2 0
19842 1 1 0.20321721352848332 18.656618070112437 21.7556912423268 468 0 0
2138 1 1 -13.375869510697509 59.15223159301991 7.121472308894694 461 0 -1
15240 1 1 31.510483495962085 17.163062929642475 3.1364112555264954 -288 1 -1
3035 1 1 -8.294339238344467 52.61546759123597 12.690048191725504 40 1 1
2229 1 1 -0.4338797570449886 16.170766320804017 19.373007478030775 332 0 2
16777 1 1 43.64344311787711 58.32578613371978 18.908096928045822 248 0 1
7315 1 1 13.409437618799705 54.988428754512164 3.658986690572419 355 0 2
16208 1 1 -0.9899595218805484 29.35741041674925 13.178727852077108 477 2 0
14841 1 1 29.979105818365664 19.829339045538187 0.7202298585582221 107 0 1
18683 1 1 -15.372494687487078 57.1903095909093 7.227550406012625 -370 1 -1
9237 1 1 -1.5993092382761884 16.674541468276328 19.7691289212327 -396 -2 -1
15840 1 1 -1.3915704110563643 6.533666742149227 6.048713729823907 -406 2 -1
17908 1 1 1.1268873477513646 18.248113735082672 20.88074354849543 -428 1 -2
5390 1 1 -1.7692789811105798 16.395159031534725 22.550069262808066 -483 0 -1
11312 1 1 -2.588677549411375 18.01510824155253 1.6280603895806687 73 1 1
8022 1 2 -1.0022696844533971 27.536916938934667 12.246245821510422 -148 0 0
8093 1 1 -4.864402897833305 30.385914610566967 0.8034774434278081 -36 0 0
18782 1 1 0.5335609023622636 14.811904003695942 21.16936409462419 207 1 -1
9511 1 1 -13.895254000150118 58.33971420508714 6.525314137443471 -245 2 0
13110 1 1 -2.1650360881597592 28.507638842912908 10.633248429093454 -287 1 -1
19930 1 1 45.71551225515664 59.16233637311707 15.882088010601207 -359 1 2
13785 1 1 18.1718446863779 1.3511920398198105 22.608092282823783 -19 2 1
4001 1 1 -4.169508555098494 31.49613849135672 11.232268590758379 -164 2 0
4040 1 1 18.476046681181682 0.37627645544615385 22.36346749639809 72 0 3
2238 1 1 -2.002345632693835 26.07839417740085 13.108283713962997 -251 2 1
998 1 1 0.40811364882573287 26.78365364354287 13.472910370531332 -198 -1 0
9843 1 1 10.637289081207355 9.512126519622042 15.524940359662546 487 2 0
18565 1 1 59.33047949167204 9.842034968185969 20.975328092100934 357 0 0
10553 1 1 0.5319593025028677 23.22264225451722 11.160191492290934 140 1 0
9222 1 1 31.25593598127699 26.392148581511616 0.9104249032639852 -74 -1 2
4002 1 1 -2.3860027144665814 26.956970255353383 13.606510302465926 -164 2 0
7486 1 1 0.9022258681981601 27.487445880807517 10.933741630607637 -288 -1 1
2618 1 1 1.4038438815404195 17.71888923466793 21.998083297900962 429 -2 0
13109 1 1 4.71581030467831 33.08732349313099 14.984690646784797 -287 1 -1
17857 1 1 46.074814756848866 57.370965164999525 5.207581137769655 420 0 1
11491 1 1 -1.607284560080462 18.011136326893297 20.65105860066736 -204 1 1
14271 1 1 -2.610822305503683 23.702115281325856 7.911460343919619 466 1 1
9136 1 1 32.2854736469796 19.233875043812702 3.553329044162109 389 0 4
5581 1 1 39.9517246927487 41.639349737137614 3.5279660702576074 242 -1 0
11490 1 1 -0.6915983516576478 17.29851009846432 19.37943822253338 -204 1 1
14016 1 1 -1.6204854677403975 15.626560574137992 20.4642292957523 -207 1 0
6139 1 1 40.31013745571005 60.91918922143201 23.636533379148755 177 0 0
2405 1 1 -3.9931715080137926 16.178943851024137 3.0958122013671945 52 0 1
14108 1 1 -4.078566929834848 29.75872192988634 0.2634227210445482 314 0 -1
16866 1 1 56.14936083412354 18.912635740081654 8.10659844074648 20 2 1
7686 1 2 3.5762402477689075 0.17496806826422517 8.900805684311349 -99 2 1
9937 1 1 -0.6985846941409903 25.51899279751238 13.018443570327827 308 1 0
7064 1 1 -2.0576476092726717 12.149283374791978 1.9412317339266663 305 -1 1
18546 1 1 29.354729663885706 18.977449755265333 3.9018288474074185 247 0 -1
8825 1 1 -1.5031560282658767 8.207538940986561 2.604330284073992 205 2 2
145 1 1 -0.7929814671202857 26.290036284490874 13.75300353003376 332 1 -1
9156 1 2 -3.5370819536362124 16.363261055829486 1.1706614639379043 137 0 1
6332 1 1 -1.5551203204061714 25.608076051501392 12.126884876813158 247 0 -1
9227 1 1 49.43078251127222 27.124631258511695 1.643618801467671 -295 -1 0
13608 1 2 -0.17692234865807155 16.7471281593378 21.283188631343744 -355 1 0
9844 1 1 1.3221711914634495 15.30384133414512 21.848952067935556 487 2 0
15983 1 1 46.24246692472599 53.76609291402857 6.339148826958785 114 1 0
1856 1 1 2.7296130959112084 1.054268507571777 22.1906918542209 159 2 0
6062 1 1 54.34937440855532 4.633317561426202 3.583500780060609 -399 1 0
1307 1 1 14.200779284254349 0.27162878197148355 23.795331698834545 480 2 1
9226 1 1 48.87417748982798 30.13199223317967 0.8549792414755899 -295 -1 0
5389 1 1 -1.7324556271274965 16.22092119942443 22.24034455560654 -483 0 -1
6249 1 1 27.06356203057664 24.74810911897738 3.0065474704677495 -476 1 1
11511 1 1 2.553786095194784 61.120751799126886 6.590192366706678 311 -1 0
5372 1 1 32.28420111482362 20.222829540623504 2.425936901638957 507 0 1
6046 1 1 18.242997913539632 1.363530225776117 19.881511154690518 221 0 2
1721 1 1 40.02361224342877 44.49240678287021 2.3167033433337383 -457 -1 -1
12878 1 1 -1.3607126522582202 32.60380823076952 1.5059490500780517 155 1 -1
2139 1 1 -13.423581229446505 59.28657891260279 6.69476328605511 461 0 -1
930 1 1 0.7558877935423425 17.16926095687632 19.61363299693988 488 0 1
2148 1 1 18.655048884288956 1.399841765014745 3.2057284920307785 -507 2 1
19841 1 1 0.8525971625034385 16.660567112886305 23.082459262096616 468 0 0
1432 1 1 -13.113483287249196 59.75564943392018 10.59059564292518 227 2 -1
12544 1 1 -11.1316413756421 60.31156338281323 8.38108042202165 -309 -1 0
18664 1 1 -1.1613207866440654 5.79214798305099 3.1422836294230767 -215 0 -1
15374 1 1 2.0858281560678478 1.5341005235179597 21.430898700634966 376 1 -1
9863 1 1 -4.6253066996228185 60.891573432351926 16.98136375863969 462 1 1
15764 1 1 -0.3666756827734302 4.586632248793687 20.778160465107543 -269 0 0
11512 1 1 7.773838337941971 61.19912524207818 12.804012720778987 311 -1 0
7942 1 1 41.99508757372643 39.782394584687104 3.079833868319758 32 0 -1
4137 1 2 -15.320940177936652 59.5707924112884 7.441881729268079 -118 0 1
12546 1 1 21.843328952317385 4.988161251481945 16.033206908210136 -205 0 1
3302 1 1 18.64326260284934 12.377125134117382 12.523918596627258 -458 1 1
12569 1 1 17.133039691592394 13.46976934912795 10.926463526062406 217 0 -1
15968 1 1 20.84070102602038 13.73090043285041 12.201865465315967 -183 2 1
14502 1 1 20.637143570101482 14.76414568614778 12.046069450056187 258 1 1
15818 1 1 21.465880040572944 11.028525666878277 15.09974517615371 332 0 1
3129 1 2 19.067088934654496 13.85530355939599 11.078173267161187 -348 1 1
14501 1 1 19.90060123681038 12.805477677719008 9.561690646469954 258 1 1
19832 1 1 15.633462172476069 9.435040273372591 9.468734894910309 296 0 1
9137 1 1 29.37375214413043 17.389139296470532 1.925098893482909 389 0 4
18812 1 1 19.31040506116689 15.725466970320808 10.523541301746647 -480 0 1
12158 1 1 20.377161400685118 12.64969833750947 12.011434251537606 -314 1 0
4912 1 1 10.13185547620715 62.362923614438074 1.8382236320314624 -122 -1 2
15819 1 1 20.52181359111377 13.873530926992999 9.589461506299637 332 0 1
15256 1 1 18.12998685001504 12.199892883840526 10.393445303692438 176 0 0
8421 1 2 20.815433097171645 6.55890699349559 15.519172328688835 -156 -1 1
16845 1 1 18.903972693337895 7.046066013439702 15.94597148050446 216 1 3
6106 1 1 41.75366083148567 60.981183635993084 18.31971403783251 -504 0 0
5833 1 1 18.724612777566644 23.79198536775511 5.699973738686425 -295 1 2
5832 1 1 19.107503743443292 19.424287633074734 11.969359142285034 -295 1 2
19343 1 1 11.597818980719563 13.286833189699129 2.631183321007771 359 0 -1
14335 1 1 4.844485176862319 33.03702972494784 18.236990871055507 333 0 1
19078 1 1 11.80276596645097 12.502252959810374 4.760194607271895 -75 -1 1
9898 1 1 22.261306395259492 7.454709529234308 14.49695765174216 26 0 -1
20136 1 1 20.8168318118566 7.014651946944894 17.522435121862063 428 0 1
3192 1 2 19.349218734009305 1.9976628695605372 4.998278040879279 281 0 1
17862 1 1 19.678359072110233 7.562986437560765 14.076409994295974 223 1 2
4684 1 1 19.930702803566405 12.162345121007027 10.561437133377504 110 -1 0
12570 1 1 17.356714788439273 13.140882778728137 10.13957387532417 217 0 -1
2582 1 1 12.057051080682749 9.961488777105245 4.217362268455926 -457 1 0
14336 1 1 8.242964553361581 35.09419664417839 16.581109729716047 333 0 1
20135 1 1 22.73137319772955 6.666005091047618 16.21119539056629 428 0 1
19172 1 1 10.319614566854014 11.275348268652658 1.4449061345489533 208 1 0
4685 1 1 9.500234899224719 10.600810020436937 4.531792729432002 110 -1 0
18813 1 1 19.364450291282704 15.67516476706916 10.165297561694299 -480 0 1
15282 1 1 19.159990087463353 1.7800891445787792 6.989411366604419 13 3 0
15255 1 1 19.825680897015463 12.180256392791856 8.483102801769155 176 0 0
20164 1 1 17.14532433593198 2.6910146958209586 21.403290032368776 -122 2 0
5549 1 1 22.676383121961354 6.165447152742303 14.933159584630653 302 1 2
15967 1 1 17.143774636610743 14.491553571911737 10.85823237211284 -183 2 1
16209 1 1 0.9632600365073678 28.17983171760387 12.67737567332409 477 2 0
14982 1 1 21.83321606027475 5.228162014491901 13.887907085655474 175 1 1
19831 1 1 16.13535702095127 4.95637717526941 10.408448058401575 296 0 1
16487 1 1 9.495502811831962 11.637757702935884 1.9956821944159906 275 1 1
12547 1 1 20.631815341083655 5.158557060112314 16.954507919843092 -205 0 1
13803 1 1 19.306789012053915 0.18309010904531312 5.852109865231075 -362 2 -1
13786 1 1 19.52892915185145 5.635246420066858 14.088588208763847 -19 2 1
9986 1 1 19.999778202120694 13.36126443521726 12.86001079452582 -249 2 1
6922 1 1 21.677538362080348 6.714776791746183 13.701259031032011 -430 1 1
18124 1 1 20.731401594670853 8.508706097391668 14.841454174956084 105 0 0
352 1 1 5.233383571564742 0.4138322867765496 7.882990503820894 -384 1 -1
10409 1 1 5.470935271272583 4.76057339072106 15.378262592415147 -185 -1 0
265 1 1 32.20697231617998 29.197379281604633 0.22493545659397407 -457 1 1
4297 1 1 18.471602591163464 8.216535635144565 0.7300361213320822 411 1 1
3673 1 1 9.881849462943338 12.911864422633574 4.204706472107098 -121 0 0
19077 1 1 11.58503911402202 11.992195997481977 5.43248276269768 -75 -1 1
10173 1 1 18.384030425823568 11.95000925186808 11.319737763517875 339 1 0
16846 1 1 18.598775558870067 13.626921976857924 13.096498813316813 216 1 3
6923 1 1 21.859513431735586 5.764347119020932 16.998495538408285 -430 1 1
9899 1 1 21.997628680622466 7.671139727205967 14.200723404479763 26 0 -1
9987 1 1 12.815217061514682 11.019802780475462 2.891604125901883 -249 2 1
2671 1 1 0.5699566014600901 21.790540512083563 17.15565742166262 -309 2 0
11074 1 1 12.726229139816168 12.27851892151527 4.170767193168871 -85 0 1
2237 1 1 3.979706613872267 32.49363900538834 14.178337867737344 -251 2 1
11438 1 1 43.17336036273889 42.39579416936872 4.085252965915891 -501 1 1
18125 1 1 20.986989709209578 14.348901227300354 10.605576422831923 105 0 0
11738 1 1 17.5111727082928 13.49154913901818 12.430754181687066 -325 2 0
14270 1 1 -0.494885307681991 26.487259400787124 10.512139834963518 466 1 1
17907 1 1 4.663918473412673 16.94448558449679 11.177340251714185 -428 1 -2
7485 1 1 -1.983019465242199 24.67597745362785 7.691230197895232 -288 -1 1
16064 1 1 42.99336703246999 45.1556259603943 5.353596671675684 324 1 1
7996 1 1 17.507049666624 2.1889389225292764 4.183110113619697 -409 2 -1
11653 1 1 8.537133654718827 52.56333282731109 24.572342625128304 -8 2 -1
12879 1 1 -4.176517272520461 33.28281021269314 0.5160584710153749 155 1 -1
16517 1 1 -3.0941138234277243 27.689493718383627 12.781520526882053 436 0 1
16518 1 1 5.013913966530827 29.17883569852282 11.31903451760003 436 0 1
253 1 1 10.920568144844676 9.40444477569687 3.584634840743576 -70 2 1
14284 1 1 54.933085687064384 26.43296664374391 24.448521574782312 -185 2 1
2147 1 1 20.291704258333525 0.04177247355351643 6.372082740362605 -507 2 1
2096 1 1 30.953149354887785 20.629513296941806 1.5504538689449354 283 0 1
19533 1 1 -9.343325332030005 34.13127763967313 5.4634383543871365 477 1 0
11840 1 1 14.281708509622423 48.70510416380988 10.080114023140856 508 0 0
12852 1 2 16.85330940109032 0.77167791729103 21.263999283185726 11 0 0
2738 1 1 12.031388679504962 11.64530542350316 1.7746459039648428 -477 -1 1
13802 1 1 19.166658255101293 0.1658158913809217 4.0728129206613986 -362 2 -1
999 1 1 0.49378953984129037 26.154493565320404 11.755469132240112 -198 -1 0
3036 1 1 -8.920927459795307 54.277387114888434 10.344764722913457 40 1 1
6333 1 1 3.1416941485872876 26.43008102493873 15.265124972752563 247 0 -1
17753 1 1 56.33477266593732 21.813362854071634 8.738578197061667 -81 1 0
4298 1 1 20.482501117862643 3.559213627850234 4.856012345141597 411 1 1
11075 1 1 17.731550542460553 1.0971339035595935 5.817648100452766 -85 0 1
9491 1 1 12.790371845702236 10.703981234971053 3.9610245781238382 361 1 1
10408 1 1 6.011227320323245 8.1953456887426 11.301395391982124 -185 -1 0
5654 1 1 16.35855653047022 11.602204104634824 4.06518916789779 379 0 0
3224 1 1 42.60915961236849 41.74320015140755 0.847135340756586 120 -1 0
9936 1 1 0.03230296591248827 28.781281344279677 11.194831406261095 308 1 0
13876 1 1 21.195878996419022 8.04842601378114 16.887254106411383 -330 1 0
19171 1 1 11.153705955793637 10.92903376386282 5.342059532060701 208 1 0
6647 1 1 46.99420855066488 54.599976577226776 5.6459389223259 147 0 0
2320 1 1 -0.33447630097899905 6.135724641093005 3.9446301381911635 377 1 1
11380 1 1 11.042749840341276 10.289363738587074 1.7132059552469663 -388 1 -1
19509 1 2 10.943735586322594 11.466239812716621 3.363917704245828 -455 1 1
20163 1 1 16.806900408605472 2.79065180719711 21.6669733504545 -122 2 0
19342 1 1 11.026065001128107 12.236847516531306 1.5321131562091732 359 0 -1
18517 1 1 31.965997990972546 17.398516512454183 1.7106124056833008 377 1 2
19147 1 1 14.876155378558542 57.36233871487058 6.383644749712789 443 1 1
5550 1 1 20.084946761555983 8.241185883977039 16.524678765267605 302 1 2
16640 1 1 -5.1259937211852336 57.58516591236287 24.002050199773777 -34 -1 -1
12157 1 1 26.68346181839867 9.219631882463029 11.949948928789956 -314 1 0
4034 1 1 13.783160153561155 37.52905567070189 11.986742032598812 406 0 0
4059 1 1 2.9860873685942924 37.14235000419452 20.13820341953303 -307 1 1
5836 1 1 45.935031227356994 59.543991937071866 17.14714688909639 -222 1 1
16778 1 1 44.82013351659392 58.19221151192437 19.173434445006052 248 0 1
14842 1 1 29.347638640673466 19.376748943530252 1.1022154353797473 107 0 1
5813 1 1 9.783059698512087 10.194037801764091 2.1666202600466176 -179 0 1
19075 1 1 16.589978301769833 11.347797747669965 19.00334478909414 179 0 0
4854 1 1 3.70073781810064 37.538769139965304 23.043965316514353 -336 1 -1
254 1 1 14.061878546139337 23.176722389478353 6.439750262252085 -70 2 1
13005 1 1 46.12042410823262 57.058812367530514 7.096593283185885 -116 2 1
19725 1 1 3.827918067063738 37.90801782119743 22.13737713423226 114 0 -2
8791 1 1 34.68986244040575 44.59629004424454 1.87439203394777 481 -1 0
14696 1 1 1.0863836299087186 37.00089025131333 22.566660385698746 244 0 1
9578 1 1 38.235190858342264 10.767311604139914 8.765703568141642 61 -1 0
5690 1 1 28.949295859769343 45.762008863482244 0.7697905548618877 350 0 0
19076 1 1 20.962791528763304 8.72800477728257 15.766829942160252 179 0 0
5402 1 1 9.204871228609104 55.82210368832064 22.91409183068871 306 0 1
10428 1 1 43.68147587942262 54.726479038502035 6.271555630070831 -309 1 0
5761 1 1 8.416227257072094 54.940845613430895 24.550627553911987 -449 1 1
4193 1 1 54.895180791894376 22.34930612466664 9.496692786437578 -346 -1 0
16744 1 1 45.78905017745766 59.554993565824255 18.145247444836308 -199 1 0
19194 1 2 2.757508071856778 36.223083561425454 21.92109668188295 266 0 -1
2989 1 1 31.838227580238172 59.708217296390984 13.206697283587847 107 0 -1
3587 1 1 -4.263141173304966 62.42139688813297 19.167671717084925 -181 1 0
4145 1 1 33.14519198146951 26.918742487953107 0.463589517808763 491 -1 1
7104 1 1 18.816883329215397 1.511549948374993 21.6605938796139 235 0 2
1319 1 1 -5.878542297189298 30.76234471655318 0.9291112426229086 -452 0 0
15525 1 1 6.760320996251242 7.650143235898035 20.39920593346507 -467 1 2
13909 1 1 15.064237732915885 1.468362824871779 21.728958481664495 246 0 2
4608 1 1 9.544843550931187 61.66584057107418 24.96015673187196 123 -1 0
4033 1 1 10.451865570303445 31.581583948514375 14.932509419901674 406 0 0
19724 1 1 1.380038490893023 35.93009564166217 23.403269447238266 114 0 -2
484 1 1 53.87757267299389 21.64632530501604 10.069761280646818 373 0 1
15421 1 1 24.197654998647465 3.9029028632089218 19.177120297767143 481 1 1
2737 1 1 16.63029213385314 9.412932172448743 2.9361141453117905 -477 -1 1
5762 1 1 8.188534711946026 54.13931622716124 22.269656776612678 -449 1 1
11265 1 1 33.03015702384592 61.79703878550053 12.33749155182681 -275 1 0
4058 1 1 1.8052315960728968 37.94878896226688 21.71240931713529 -307 1 1
12747 1 2 9.685002701824423 53.86644262794895 23.46678397137176 262 0 -1
6061 1 1 55.17142807452811 7.298771547958609 4.581390251190164 -399 1 0
9326 1 1 5.442691192585689 0.13201996671136085 9.707308359627097 0 0 0
10860 1 1 43.705592599566444 56.45512722747464 5.233098378016091 -243 -1 1
18684 1 1 1.0838619660889446 57.847718785332866 22.964661964449363 -298 1 0
5637 1 1 27.457027594741028 44.59453436857311 1.6517699784175095 59 0 2
14697 1 1 2.5072990268020767 34.48921462875628 20.957189431621963 244 0 1
6763 1 1 9.025678252824425 55.182269130883846 22.12710513567436 -338 0 0
9424 1 1 18.600961129319593 10.082944183358718 0.5936967488676008 33 0 -1
3392 1 1 44.96860120434775 56.7243170372689 7.505990585172991 -264 1 0
17389 1 1 15.055492306180883 0.2244793124124289 20.7503682797558 442 1 1
13911 1 1 43.95264344427886 56.095008040452015 16.815784492499823 294 0 0
14857 1 1 -7.339015588689062 61.67651731318358 17.22195344354861 509 0 0
13934 1 1 32.4167359116711 36.26928308187957 20.388748194123004 303 0 -1
13175 1 1 40.93203906188274 8.609539959524229 2.158805376901749 481 -1 0
19308 1 1 43.96515303339071 54.99736485939741 3.004646081152169 289 1 1
13193 1 1 41.84357890535135 62.347406385572896 10.651299131974636 -362 1 2
17752 1 1 49.966928023802744 19.172466352951705 10.486759234526586 -81 1 0
14574 1 2 45.35019290094945 55.58562244250013 5.902104211364341 305 0 -1
16198 1 1 53.28980785452826 19.847820011254687 9.705929873454082 -191 0 1
7941 1 1 40.1027869656616 41.09448028829753 1.778343421003554 32 0 -1
3303 1 1 19.153518410842167 13.428138312378602 9.18727699970417 -458 1 1
17675 1 1 -1.1114226926867252 7.107060431256502 2.413592529085676 76 0 0
472 1 1 44.85137418405658 54.11837377970062 7.225830318972798 174 0 1
13214 1 1 51.4529542509619 31.3140914282315 1.6003070374183805 190 0 1
7626 1 1 35.46295163264812 60.83956824425137 13.791715427956083 175 0 0
2621 1 1 30.66550790859772 3.210659897155202 0.5326061537028856 -86 1 0
14771 1 1 43.07536387267889 57.044386130131066 16.654235413837657 156 0 0
19706 1 1 50.99208571376564 27.106079246497764 0.8451860013061943 392 1 0
7696 1 1 45.29370592103818 53.76311373488575 5.043835332299509 253 1 0
19516 1 1 54.06214078075089 22.107178107610753 8.741170835729413 5 -2 1
10655 1 1 44.621707780334944 59.5852883301949 18.286827067248314 -285 -1 0
7227 1 1 39.986883403915215 42.54298927904301 2.636894158648655 510 -1 2
10425 1 1 36.93054204655854 34.64758568063472 2.662312349523966 284 0 1
7228 1 1 40.92335502746404 40.14822072887699 3.481323023120284 510 -1 2
19945 1 1 39.07557028654026 49.19383133242604 3.672605762712549 309 -1 2
1180 1 1 36.7948209210515 51.44758600198782 4.637992669192073 -116 2 1
17620 1 1 41.518191373363486 42.10631044592568 0.7975165172328 -91 -1 0
4873 1 1 44.74693224291884 53.67131671048329 6.24038111619443 498 0 0
17057 1 1 -4.71058174335163 61.06541645798466 18.275636907491336 400 0 1
19309 1 1 46.530252600578606 57.82104073517318 6.420157535803193 289 1 1
19549 1 1 -3.480113716571056 48.87175986754106 24.83399849299799 -196 -1 1
1720 1 1 40.28876587239223 45.41324997835753 3.244320077226405 -457 -1 -1
4855 1 1 2.925733994678179 45.53545327292349 23.817941288224112 -336 1 -1
7543 1 1 33.52396920981655 6.836796520740915 10.079206048128546 -182 -1 0
4138 1 1 34.64511655947057 5.8099477587808 8.107405262714757 204 -1 0
8533 1 1 34.525228975137914 3.5334473705338305 10.476644556394191 -374 1 2
6661 1 1 45.758484596577134 55.35427916922056 3.901741085758665 488 1 2
3767 1 1 36.08852538686141 19.627713521852492 21.846395142331257 -273 2 0
18547 1 1 30.38629543009859 18.309094920187515 0.33850513428474743 247 0 -1
10174 1 1 19.34473862067493 14.972580048549036 12.71765342947286 339 1 0
2458 1 1 36.031079948493996 12.123179938356937 11.62891928040516 -51 -1 -1
17457 1 1 42.258998461072636 40.14540320189413 1.5502511635602159 -384 -2 1
5458 1 1 26.988082728071838 12.886231056775856 23.201307665368507 485 0 -1
11995 1 1 26.90534113943461 54.64149781076039 9.23373569899597 93 -1 1
18685 1 1 9.302708428541974 55.606880542682745 24.501118296333722 -298 1 0
16193 1 1 -1.8439658570247386 9.125286529724656 3.828949803936629 142 0 0
13305 1 1 45.871278795579194 56.74687269841356 16.15206671830971 -498 1 0
5373 1 1 30.282158822152883 18.248534984143426 4.238425086713554 507 0 1
9209 1 1 36.51509695236676 49.84238039549292 6.073518608563996 -53 0 0
4352 1 1 32.50463720364653 3.506413329706425 8.406513309714992 -365 0 2
12712 1 1 47.14488555839097 13.86084231484378 20.779108085491956 -7 -1 0
15497 1 1 40.1465105335022 0.40268869281874503 2.287173116764918 -335 1 0
13912 1 1 44.84658269983394 56.32166631697275 16.100318683061218 294 0 0
19935 1 1 32.07879547741332 6.19899637983052 0.1196019202718396 -470 1 1
1686 1 1 40.397129331663365 50.298603308935135 18.43755288210846 -205 0 2
1252 1 1 27.73998553043766 13.819897254497205 23.526839540551286 374 1 0
19498 1 1 53.415296481797746 19.178743035104187 8.7551038485536 196 0 1
20145 1 1 26.20064377810624 32.900507791404685 13.824332521847937 33 0 0
8286 1 1 26.921421961240085 56.262977743800036 23.47944393050016 -104 1 1
663 1 1 -0.600445291921984 41.35697824034923 5.55747443229998 -145 -1 1
19944 1 1 35.42023210299108 49.472730363835986 3.21518400221812 309 -1 2
2406 1 1 -1.7848024080511637 12.811107711951935 3.6238247073552743 52 0 1
3467 1 1 13.038346082851136 1.4246742984827112 2.6877130436174514 66 0 1
19442 1 1 35.178319346324336 3.7778475224559664 9.56401327999907 -469 1 0
17040 1 1 20.678432603738205 10.60441200481861 0.4130454006844366 171 1 1
17392 1 1 -15.542004033445458 58.87350946036696 9.333796069629646 119 -1 1
14810 1 1 43.615278433886076 55.45478333908968 4.935351700580204 -220 1 1
11737 1 1 19.80997428079767 15.474067685386876 11.912500801738215 -325 2 0
14127 1 1 31.504626099961563 4.767021076798674 8.919482734014318 193 0 0
14930 1 1 33.88086905399913 19.309418022398297 20.053427873541043 3 -1 0
13103 1 1 25.422842206926244 44.3790168269315 2.210104594094128 121 -1 0
6003 1 1 39.2186597968326 49.523120664898116 19.029128388079098 -303 1 -1
6105 1 1 42.68802846138968 58.01732967726325 17.460293846640933 -504 0 0
9399 1 1 17.876269998368365 56.69483293528402 7.9950372162215775 -232 -2 1
12540 1 1 32.196728163880124 58.82985225742495 12.471306244161077 347 1 -1
16745 1 1 46.39626569003067 56.86302704784055 17.505185515240427 -199 1 0
3643 1 1 36.95714020803974 49.28445936057065 2.178767463508304 -473 0 0
18510 1 1 -3.4822847926316776 31.09883830863462 1.0943390997511853 99 0 0
6215 1 1 16.640702907887945 0.49046933761945194 23.186318008511527 45 0 0
7542 1 1 31.92186879435176 6.073887314742614 8.963943982517016 -182 -1 0
2074 1 1 -15.832148341023577 59.59214659986233 5.488302150398363 -471 0 0
17522 1 1 14.810507113568045 36.02445146772309 1.1230308831914462 337 0 0
19921 1 1 27.65015738772396 12.132320299591159 22.629703309822037 468 -1 0
17722 1 1 38.07694960617931 51.226653673186384 4.368523360130838 289 0 1
16453 1 1 49.776603959575425 16.216077794333334 21.702332522741496 -155 1 0
6418 1 1 27.09587189500822 12.090235981266423 20.286524834212223 -281 -1 0
11841 1 1 7.821590320044454 44.85410357977907 6.297720708016208 508 0 0
19934 1 1 33.65404677053515 6.746897165865735 8.91757689278727 -470 1 1
13188 1 2 30.725076340197127 18.80668930934594 2.3224365380915866 -283 1 1
5026 1 1 48.46540282620025 29.024693316704433 1.5632106143754365 108 0 0
9210 1 1 37.646332398355966 50.9241319908563 5.666685880198568 -53 0 0
6660 1 1 44.92293930063799 55.06710052833079 4.064623224316253 488 1 2
471 1 1 38.15498256676149 50.04883275745088 5.874150934076243 174 0 1
5070 1 1 35.3542540990477 48.61950400392532 4.213736764449941 304 -1 0
1179 1 1 45.20324302221442 57.61127188826884 6.294181803671906 -116 2 1
14153 1 1 38.13557032860921 25.861610063198242 20.59996926153666 -82 3 -1
1323 1 2 37.13861291921373 49.47352732805722 4.178268952637731 -316 1 1
19497 1 1 54.7184566389013 19.255424632232327 10.631843978460553 196 0 1
4669 1 1 45.872294438331124 14.441648864688593 24.820825835182745 330 -1 -1
5071 1 1 36.30261420911831 47.921691086567954 5.101380351833854 304 -1 0
16458 1 1 33.366754025941944 59.78516580981694 14.692131791120618 136 0 0
10427 1 1 45.85985196739203 54.720945344414126 7.667104568016952 -309 1 0
19925 1 1 33.593847561083365 49.499418047213275 11.828707207782475 -480 1 1
12134 1 1 41.66884206151618 41.12986207400015 4.711461827940365 236 0 1
3264 1 1 34.20536705964904 36.680908176274215 4.685681732243135 419 0 0
18868 1 1 42.09749041546567 49.50844204967529 18.96645692197881 -343 0 1
8948 1 1 37.56794378392073 36.075753713475734 3.310646682765844 -323 1 -1
15235 1 1 49.660935043842045 15.756214158343655 23.481528278876368 506 1 -1
15584 1 1 34.16230404285622 51.104377790247206 11.368726039742768 297 0 1
4270 1 1 38.100306072940796 16.670320073609737 5.999106774656712 -494 1 1
15276 1 1 36.01430959566137 36.738473275564225 5.717338797534277 -454 0 1
13174 1 1 37.420875402796625 15.197704180297055 9.475563747920823 481 -1 0
13261 1 1 43.31946159703688 33.33359956527326 8.472635432895055 298 1 0
10861 1 1 46.655262305501715 55.76806080570024 7.39414844919308 -243 -1 1
10884 1 1 40.56455550260204 48.32632103175427 19.78982054525607 -27 -1 0
61 1 1 28.087596543292527 10.09064813279581 4.304170736476451 483 2 1
19011 1 1 38.0557743542679 14.305094999182302 9.167698821993032 403 1 1
18997 1 1 31.609203391246886 4.248735697806508 9.812246049263827 200 2 2
6248 1 1 34.7846472913388 22.1635687231996 6.049373582676821 -476 1 1
3265 1 1 38.02816141544504 35.0269635852037 3.329322716531663 419 0 0
6002 1 1 39.16278892093317 48.625436565103165 19.048667672043536 -303 1 -1
7329 1 2 35.763899451181885 35.668278660150285 3.9921882035762764 -210 2 1
1430 1 1 28.25106756528331 6.326027390639956 15.44164083421621 -212 1 0
18970 1 1 40.666569937865034 53.296292385063765 9.712463362270476 502 0 0
10902 1 1 33.507860304530354 3.347013795626448 11.119753212976091 446 1 0
6700 1 1 37.56809180046759 14.010195324102726 7.648071182111147 284 0 1
6079 1 1 44.91319592311456 57.15004083157665 18.96157290755576 396 0 2
13425 1 1 33.61575570940512 11.740379124243308 14.891732950063354 325 1 -1
16514 1 1 35.200432248692664 44.04705185327573 12.095833582285165 -224 1 0
13260 1 1 36.41686728501581 32.67918855903868 7.38671247613313 298 1 0
8534 1 1 32.429664266697074 3.150595784888956 9.832928083824216 -374 1 2
16997 1 1 30.23709908861194 48.92830462545168 10.989199365573718 506 0 1
8936 1 1 28.97282838031784 12.152912472345141 21.392972394029684 142 0 0
15373 1 1 0.9437061224395825 1.8203698366173386 22.577307503088498 376 1 -1
11994 1 1 37.44503446361807 47.892808605414466 5.308340929099051 93 -1 1
850 1 1 24.571320443960033 5.120348876397039 22.92898554365859 -132 0 0