ITEM: TIMESTEP
0
ITEM: NUMBER OF ATOMS
1290
ITEM: BOX BOUNDS xy xz yz pp pp pp
0.0000000000000000e+00 5.0000000000000000e+01 0.0000000000000000e+00
0.0000000000000000e+00 5.0000000000000000e+01 0.0000000000000000e+00
0.0000000000000000e+00 5.0000000000000000e+01 0.0000000000000000e+00
ITEM: ATOMS id type x y z 
1 1 9.7557 0.848448 37.2865 
2 1 9.89393 49.6703 38.3154 
3 1 9.71783 36.1048 41.2919 
4 1 12.4782 34.8465 43.0231 
5 1 33.9973 17.9404 7.4507 
6 1 34.0664 17.5481 5.92521 
7 1 28.9014 6.00993 29.7979 
8 1 30.6723 5.1845 28.3209 
9 1 33.2335 25.5414 35.1588 
10 1 28.8925 25.7399 40.9774 
11 1 44.3812 4.88201 34.9309 
12 1 48.6984 3.68593 39.7412 
13 1 16.7723 1.85266 48.387 
14 1 19.2815 1.96258 48.6724 
15 1 9.8982 2.85952 7.76652 
16 1 8.65249 47.1109 10.346 
17 1 26.2571 5.22989 8.7178 
18 1 24.8165 7.74806 10.2365 
19 1 17.171 21.5967 11.8681 
20 1 18.9481 23.5233 12.6726 
21 2 34.1406 39.6767 11.7454 
22 1 14.591 27.1757 38.9336 
23 1 18.6399 20.974 38.5016 
24 1 35.9411 23.719 36.5656 
25 1 33.9818 24.354 37.5494 
26 1 19.3953 14.5669 42.7804 
27 1 21.0502 14.3299 45.6957 
28 1 11.0574 3.57235 3.37514 
29 1 11.0498 2.91213 2.43369 
30 1 43.1722 38.4788 40.41 
31 1 37.007 41.0011 42.3405 
32 1 42.324 22.7007 40.0208 
33 1 44.0347 23.5429 37.9738 
34 1 15.6709 24.7068 31.6049 
35 1 16.2892 24.5376 33.0106 
36 1 25.0793 5.32133 8.8816 
37 1 28.7181 10.2438 2.94268 
38 1 5.52236 37.1308 4.33677 
39 1 43.1178 39.5086 6.38269 
40 1 30.8831 14.5621 4.82148 
41 1 35.2805 18.1865 8.30571 
42 2 20.442 30.2942 17.9932 
43 1 11.2359 49.7631 17.2499 
44 1 14.2628 2.45215 13.2585 
45 1 43.8862 37.3358 36.6442 
46 1 41.4944 38.4279 38.5503 
47 1 10.0552 28.7635 47.221 
48 1 8.63308 32.2491 48.4388 
49 1 18.9134 31.4209 17.3572 
50 1 9.50149 26.4837 22.2505 
51 1 36.6386 25.2921 35.0787 
52 1 36.2164 27.5298 34.8044 
53 1 49.4187 30.266 35.8995 
54 1 42.7451 39.0678 37.0184 
55 1 29.1356 11.1997 13.8591 
56 1 36.8684 14.1353 12.2716 
57 1 14.6559 29.1931 41.1095 
58 1 13.051 23.3369 47.5156 
59 1 18.392 42.9471 28.6482 
60 1 16.1543 0.300889 22.4454 
61 1 27.0446 36.4372 39.1175 
62 1 26.9194 37.8416 39.5027 
63 2 29.8547 4.25164 29.8928 
64 1 17.7108 38.1567 48.1578 
65 1 14.8692 37.1833 48.7709 
66 1 8.10846 41.9966 47.9295 
67 1 6.911 40.2094 47.7489 
68 1 5.13578 18.8386 35.4202 
69 1 15.733 23.665 35.6643 
70 1 28.5582 2.77166 29.5209 
71 1 28.2013 3.1356 30.0671 
72 1 7.95911 31.4548 48.8251 
73 1 8.97432 28.7905 48.912 
74 1 17.2235 2.86224 47.6997 
75 1 16.9574 2.14913 45.9113 
76 1 18.597 29.6344 18.4042 
77 1 21.1838 32.1443 18.1824 
78 1 38.1307 3.50312 36.2772 
79 1 40.8548 4.71598 28.5524 
80 1 21.742 42.7703 10.1581 
81 1 22.3534 41.4381 10.734 
82 1 13.2564 36.6607 42.0792 
83 1 18.2055 37.5382 49.7148 
84 2 13.3379 32.1377 12.3469 
85 1 16.4584 2.61746 12.6182 
86 1 18.5532 1.70818 22.9599 
87 1 21.3703 15.564 45.865 
88 1 27.1058 19.1838 1.27781 
89 1 13.792 9.73003 18.5177 
90 1 15.6503 3.21746 15.6416 
91 1 20.6832 23.1584 28.3095 
92 1 25.0844 24.7036 26.1983 
93 1 30.0245 34.7206 24.306 
94 1 28.7171 32.6973 26.7693 
95 1 14.6074 18.4394 49.0207 
96 1 13.228 22.9526 48.9035 
97 1 34.8862 16.4816 49.1312 
98 1 34.0444 20.3111 6.04371 
99 1 7.42955 49.1964 39.6448 
100 1 6.26653 0.471588 37.0666 
101 1 4.48993 28.0031 21.9627 
102 1 8.45649 30.5443 19.1376 
103 1 18.1032 28.224 46.0079 
104 1 25.9673 32.9395 49.3489 
105 2 23.5381 46.6415 39.4584 
106 1 7.47717 20.5863 35.8963 
107 1 7.02342 20.4666 32.8968 
108 1 24.8201 30.8404 37.8428 
109 1 23.9439 22.7356 36.4447 
110 1 35.5743 18.0915 3.8166 
111 1 41.9817 21.171 47.8923 
112 1 24.8196 4.60945 8.04185 
113 1 25.8507 4.26492 11.3308 
114 1 23.592 31.8107 19.6458 
115 1 21.8967 29.6913 16.7565 
116 1 15.6165 28.2146 3.98834 
117 1 18.6019 28.8065 3.56882 
118 1 28.2456 28.7003 39.2797 
119 1 34.3473 24.7878 34.3661 
120 1 31.3894 34.3323 27.5073 
121 1 30.5064 33.6611 23.9887 
122 1 18.9446 15.7599 43.5546 
123 1 15.3455 20.8699 46.2489 
124 1 5.5345 6.16003 13.261 
125 1 6.79852 12.7762 12.4821 
126 2 19.2232 26.9782 4.10041 
127 1 47.6958 24.0296 26.418 
128 1 4.11712 21.0805 34.1113 
129 1 49.1484 31.7374 46.2312 
130 1 49.6906 33.6368 46.0868 
131 1 24.6009 16.7622 1.20059 
132 1 25.9045 21.5212 0.719746 
133 1 41.5538 2.04226 39.4532 
134 1 39.1946 12.4921 38.6469 
135 1 48.1021 49.7473 49.8035 
136 1 2.96915 4.8925 7.24736 
137 1 3.58141 35.2256 15.5223 
138 1 4.92969 34.9927 15.9913 
139 1 26.3814 32.1763 22.9106 
140 1 28.9029 26.0603 21.5027 
141 1 24.584 2.35216 8.2256 
142 1 24.2776 2.20205 8.77861 
143 1 15.2359 23.4099 48.1563 
144 1 13.5564 32.4366 49.5605 
145 1 2.34048 6.24573 9.83793 
146 1 2.82065 3.5703 8.53569 
147 2 11.3974 14.6997 41.6527 
148 1 24.5185 23.7866 27.5103 
149 1 24.0712 24.8155 27.7818 
150 1 17.694 5.41327 43.6306 
151 1 18.1993 2.8881 48.2469 
152 1 12.9017 11.3226 17.9885 
153 1 5.79884 11.1637 15.7544 
154 1 28.6141 30.8054 42.3893 
155 1 18.1166 32.1981 42.5776 
156 1 12.3004 2.15497 28.8953 
157 1 17.8804 0.838766 24.8565 
158 1 8.92075 4.82989 13.4833 
159 1 7.56011 14.2808 23.0306 
160 1 27.2912 34.6153 1.51608 
161 1 25.6268 32.1611 1.11346 
162 1 22.3755 15.1261 45.2378 
163 1 26.5492 17.9425 40.4802 
164 1 47.1376 29.9409 37.5274 
165 1 46.9676 30.8626 38.4175 
166 1 48.6897 16.6984 35.0441 
167 1 48.1822 14.6118 33.2483 
168 2 9.3316 14.1119 23.9499 
169 1 18.8487 41.5397 12.2778 
170 1 20.0289 43.2988 10.0381 
171 1 24.9476 38.8272 39.0616 
172 1 25.7856 35.3056 38.5492 
173 1 28.2755 5.27157 30.5828 
174 1 31.0543 8.95353 34.0176 
175 1 11.869 37.4719 40.5559 
176 1 23.156 36.968 39.412 
177 1 24.5268 33.1807 49.3777 
178 1 25.5886 35.7012 2.11582 
179 1 14.6495 12.0826 5.17222 
180 1 17.4699 10.4326 6.13348 
181 1 27.9398 14.4819 15.2561 
182 1 26.2251 13.1922 13.3103 
183 1 2.81332 49.983 1.79829 
184 1 49.7541 47.7523 49.4583 
185 1 33.7544 19.5411 7.35769 
186 1 35.0322 20.8392 6.03336 
187 1 12.7293 3.53419 3.34951 
188 1 11.8109 3.70096 4.56977 
189 2 34.9605 25.4181 36.1635 
190 1 34.5872 36.753 0.526024 
191 1 36.3445 36.7108 0.900136 
192 1 18.344 3.38173 14.509 
193 1 16.5293 0.300641 15.496 
194 1 11.5846 31.4494 11.6699 
195 1 17.9305 35.8337 10.8431 
196 1 19.9093 14.0006 45.1584 
197 1 22.6876 14.9733 43.2183 
198 1 18.3634 12.1838 6.21413 
199 1 16.2215 13.4442 7.68443 
200 1 0.12459 43.8919 36.1197 
201 1 2.109 44.6027 37.6165 
202 1 29.3996 3.66193 31.7512 
203 1 29.8608 5.98925 30.8877 
204 1 19.2199 2.81628 47.7983 
205 1 12.4893 49.8144 1.68739 
206 1 11.2847 47.761 24.991 
207 1 15.3252 44.4033 28.3989 
208 1 16.9862 2.79351 15.5377 
209 1 13.933 1.0772 14.424 
210 2 19.1537 21.602 12.1467 
211 1 21.0016 22.1199 11.5753 
212 1 19.7121 23.4682 11.6825 
213 1 19.5018 21.6983 14.1165 
214 1 26.5157 15.3413 12.0365 
215 1 33.801 34.5223 49.2752 
216 1 40.7312 29.3671 43.3617 
217 1 31.0314 9.44169 3.37533 
218 1 33.8883 10.3412 4.28753 
219 1 35.1203 15.3886 47.2887 
220 1 28.9021 13.8105 42.4546 
221 1 11.1663 44.0945 15.7769 
222 1 11.8038 2.33196 12.3027 
223 1 34.2028 27.1635 36.7888 
224 1 27.5341 22.7408 43.5027 
225 1 47.1722 11.9584 9.03896 
226 1 4.05702 6.66154 7.62566 
227 1 25.3038 46.7331 40.3996 
228 1 29.0139 2.58148 30.6126 
229 1 32.0089 16.0374 48.7422 
230 1 34.1426 19.6398 5.09038 
231 2 33.5691 16.611 47.6256 
232 1 16.9109 33.0009 37.1557 
233 1 13.5091 24.8045 32.9492 
234 1 24.5479 32.8128 2.0587 
235 1 26.603 35.7685 0.651406 
236 1 33.6401 24.3058 35.1511 
237 1 35.0741 24.186 37.7385 
238 1 42.1608 22.8967 38.1345 
239 1 43.2869 19.8341 38.5701 
240 1 32.0308 17.5586 46.7651 
241 1 25.3791 17.6646 0.846617 
242 1 12.5079 15.7683 40.3753 
243 1 13.6809 20.9836 49.4474 
244 1 5.10877 22.6542 27.7282 
245 1 13.2912 28.8961 37.2253 
246 1 30.5401 35.403 25.0388 
247 1 30.8337 35.4183 26.7512 
248 1 10.0081 15.2037 22.4135 
249 1 10.9213 14.7567 22.9168 
250 1 24.4785 17.8614 4.14106 
251 1 32.9248 11.367 1.77782 
252 2 9.64647 6.47034 30.2082 
253 1 22.6813 21.5632 27.9746 
254 1 23.2382 21.6903 27.9956 
255 1 7.52906 43.1181 27.5943 
256 1 8.00414 45.092 24.2785 
257 1 28.4333 15.9369 41.7521 
258 1 28.2387 15.8415 41.5883 
259 1 12.9682 22.8602 33.4424 
260 1 8.27185 22.8376 33.1636 
261 1 20.1436 31.4668 19.5889 
262 1 28.0342 30.6705 21.0812 
263 1 11.8311 35.9451 39.4076 
264 1 13.6002 35.1715 41.5734 
265 1 10.4249 24.3057 42.3374 
266 1 9.93578 29.4959 46.3776 
267 1 22.0421 31.2425 18.735 
268 1 22.4038 30.2303 17.597 
269 1 16.2872 44.3854 27.8271 
270 1 10.0629 44.5911 26.3702 
271 1 15.7538 29.661 8.03595 
272 1 19.4586 31.0131 16.403 
273 2 3.84765 5.22422 9.00535 
274 1 14.96 20.0802 48.5481 
275 1 15.9475 22.7762 47.5276 
276 1 9.61599 7.54382 31.8982 
277 1 9.8956 8.07383 31.3812 
278 1 17.3529 1.36698 13.069 
279 1 15.5495 49.7928 14.6816 
280 1 31.6958 8.02531 2.97434 
281 1 33.3467 8.04821 1.50927 
282 1 47.8011 14.0355 37.0681 
283 1 46.4603 15.5401 36.1518 
284 1 39.3635 41.3881 15.5492 
285 1 34.2307 38.9777 9.87178 
286 1 28.0869 14.3609 13.1092 
287 1 27.0682 13.4682 12.6136 
288 1 31.575 24.8981 21.317 
289 1 31.4278 25.3034 22.1522 
290 1 2.63684 32.075 46.1851 
291 1 1.35446 27.4912 49.0271 
292 1 3.49732 28.8794 44.1869 
293 1 3.93008 33.5106 38.9206 
294 2 40.5572 39.9278 21.2717 
295 1 34.0112 29.2423 47.917 
296 1 36.6265 33.5179 0.55842 
297 1 16.8047 0.287459 46.0695 
298 1 8.22775 0.525232 40.0198 
299 1 14.5049 4.42163 30.4268 
300 1 11.3942 6.17767 31.1408 
301 1 37.4682 35.1044 49.2548 
302 1 37.5457 34.6906 49.9277 
303 1 18.1012 20.5518 10.8062 
304 1 19.3836 20.5311 13.8228 
305 1 19.9272 2.16927 46.7658 
306 1 17.5033 2.95145 46.4706 
307 1 0.233802 30.0441 36.6637 
308 1 49.1913 32.517 36.3278 
309 1 47.3266 13.1123 36.0065 
310 1 47.3962 13.0978 36.0391 
311 1 2.30963 4.43255 7.98954 
312 1 1.89004 5.61416 8.84132 
313 1 30.8981 5.95651 29.7708 
314 1 31.5028 5.34379 29.5754 
315 2 14.7716 23.2762 32.676 
316 1 27.8252 18.1936 42.2778 
317 1 35.781 23.7953 35.3264 
318 1 5.06861 37.8012 17.894 
319 1 4.8174 37.9564 16.4519 
320 1 12.8092 44.513 12.9531 
321 1 10.4196 43.1754 10.0846 
322 1 13.5808 1.88098 4.9231 
323 1 8.17694 43.9548 7.54642 
324 1 6.53266 43.0766 45.3817 
325 1 8.18753 48.3339 38.5633 
326 1 26.0104 20.7135 2.40058 
327 1 23.3298 19.5464 1.6213 
328 1 9.19817 44.0557 10.2602 
329 1 9.4466 46.0654 7.96602 
330 1 27.2578 33.4435 1.39664 
331 1 25.5821 36.1325 1.05172 
332 1 7.59559 21.4974 34.0743 
333 1 5.80197 21.8246 36.0544 
334 1 3.19431 43.4407 37.5835 
335 1 9.05626 47.9408 37.439 
336 2 48.082 14.8006 35.2393 
337 1 9.47794 24.5546 23.3451 
338 1 8.8981 24.9883 25.7317 
339 1 15.7221 10.555 7.30965 
340 1 15.4329 11.4583 7.86123 
341 1 10.9835 14.7556 14.1681 
342 1 16.791 14.055 11.1809 
343 1 40.2053 41.8956 21.158 
344 1 38.6791 39.5347 21.8434 
345 1 10.0139 2.41319 3.41392 
346 1 12.9637 0.192678 3.49552 
347 1 9.08491 49.2663 39.4056 
348 1 8.17317 43.6049 42.2914 
349 1 17.3582 12.4981 7.89899 
350 1 16.3359 12.054 8.20955 
351 1 32.1723 17.4891 48.7603 
352 1 31.4934 23.225 5.5414 
353 1 27.5181 18.8495 39.405 
354 1 37.7369 11.3263 39.6126 
355 1 11.1949 23.9374 26.4055 
356 1 14.9939 23.2301 30.6867 
357 2 25.1517 36.9035 39.576 
358 1 12.4436 13.0161 41.3638 
359 1 22.0113 15.2478 42.319 
360 1 13.7201 22.3437 34.1038 
361 1 14.8313 25.2748 32.6617 
362 1 12.021 33.977 40.3549 
363 1 8.6393 30.9453 46.3333 
364 1 19.4108 20.0782 10.8743 
365 1 20.8557 21.3624 13.174 
366 1 23.9672 4.04965 8.52431 
367 1 26.0059 1.86355 10.5928 
368 1 10.2345 12.3258 24.03 
369 1 10.288 7.26968 23.801 
370 1 20.2041 16.6805 45.2368 
371 1 20.1941 16.639 45.2753 
372 1 10.4918 4.09227 41.6828 
373 1 6.75738 48.8741 38.7847 
374 1 24.5765 17.0949 42.7818 
375 1 31.5104 18.8431 42.5686 
376 1 45.1849 19.9954 49.565 
377 1 43.3954 21.8234 47.5372 
378 2 43.6623 21.7816 38.8491 
379 1 36.2765 11.5817 37.4783 
380 1 32.6259 16.8764 45.88 
381 1 33.3463 40.3678 13.4487 
382 1 33.092 41.0396 12.7717 
383 1 19.2174 28.7104 18.0353 
384 1 15.2909 32.0194 12.7511 
385 1 10.602 31.8684 47.0309 
386 1 11.1355 34.2899 42.7445 
387 1 49.833 31.3049 35.9374 
388 1 0.59217 30.4535 38.2999 
389 1 25.3586 36.0142 37.7941 
390 1 20.7792 36.3678 40.0477 
391 1 43.9009 21.0021 46.7057 
392 1 43.3937 20.7818 46.5697 
393 1 12.4542 33.2363 13.7705 
394 1 14.2469 33.1633 13.8091 
395 1 39.7792 38.3843 20.2608 
396 1 39.3756 38.3116 21.2327 
397 1 49.2485 1.12655 48.3085 
398 1 1.54623 0.388868 0.666713 
399 2 9.9657 44.1846 8.41545 
400 1 7.13962 33.0467 25.7402 
401 1 6.7821 44.6038 24.6443 
402 1 5.39377 41.8993 46.5911 
403 1 1.94606 33.8806 46.3792 
404 1 34.8719 9.89949 2.98819 
405 1 36.371 17.154 6.47011 
406 1 17.3101 46.6953 29.806 
407 1 16.924 41.7942 27.975 
408 1 34.3715 45.4347 4.96916 
409 1 27.3854 2.54942 9.32301 
410 1 32.7322 7.68952 3.303 
411 1 33.1769 7.78274 3.52215 
412 1 10.9954 35.2872 43.2318 
413 1 10.6142 34.0149 40.9394 
414 1 34.516 41.0186 13.1832 
415 1 32.3462 39.2212 12.5079 
416 1 28.4606 22.7444 22.0119 
417 1 31.283 23.3356 20.9542 
418 1 26.4649 38.0948 40.5075 
419 1 25.915 43.6423 39.7288 
420 2 16.3384 38.2529 49.6122 
421 1 14.4778 10.8687 18.0667 
422 1 12.11 10.0984 18.0484 
423 1 24.7241 20.6844 49.2534 
424 1 23.4355 20.5988 0.756992 
425 1 27.5826 12.0581 12.4194 
426 1 29.0991 13.3422 15.7742 
427 1 25.9459 36.2708 41.3018 
428 1 23.567 38.1165 39.734 
429 1 8.08718 12.5759 24.2663 
430 1 10.1767 15.9221 24.0812 
431 1 7.15281 1.38909 36.6261 
432 1 6.77711 2.47964 36.3737 
433 1 38.6453 28.5906 40.8797 
434 1 37.7192 25.271 42.1155 
435 1 42.2028 20.4245 38.6466 
436 1 36.3615 26.2605 37.322 
437 1 49.9507 15.4926 32.2121 
438 1 46.7962 14.6671 36.7677 
439 1 35.2907 17.3398 46.9082 
440 1 29.8284 16.3565 39.5635 
441 2 18.2139 1.20852 47.1556 
442 1 19.8017 30.156 19.8853 
443 1 21.764 28.8528 17.565 
444 1 9.76918 5.42139 28.5076 
445 1 9.79626 0.686482 38.8205 
446 1 37.9033 9.40005 38.78 
447 1 39.9229 10.2511 37.0569 
448 1 26.2423 37.2227 37.9276 
449 1 26.7089 26.2424 39.2521 
450 1 17.4894 26.7475 40.7793 
451 1 16.6993 24.1398 40.3659 
452 1 43.5096 22.4408 36.9661 
453 1 41.7769 20.3494 49.3096 
454 1 21.0878 13.4955 43.0927 
455 1 19.0761 14.5572 44.518 
456 1 2.63819 37.3259 16.0871 
457 1 1.92724 37.924 6.68286 
458 1 0.0560321 44.2651 37.7677 
459 1 45.2587 38.1962 37.739 
460 1 11.6086 9.43041 17.0647 
461 1 11.4742 9.76351 16.4259 
462 2 15.903 27.8632 40.2811 
463 1 42.746 21.2691 49.7795 
464 1 45.0182 21.3273 48.0272 
465 1 30.3747 18.0562 40.9962 
466 1 37.4524 12.8239 37.1266 
467 1 34.4754 18.0321 46.5458 
468 1 36.8969 18.5953 1.97887 
469 1 31.5512 32.1974 26.5241 
470 1 31.3802 32.9243 24.4666 
471 1 17.4434 37.039 48.4658 
472 1 16.5427 40.1546 49.0215 
473 1 43.0586 20.495 40.2605 
474 1 44.0948 20.0348 39.7285 
475 1 6.66643 45.2293 27.2965 
476 1 7.30117 43.3231 24.6516 
477 1 16.7018 42.8891 31.3678 
478 1 14.7416 47.231 31.1931 
479 1 10.1043 4.61501 30.8057 
480 1 10.7657 5.98968 28.6191 
481 1 17.0749 29.6781 18.4049 
482 1 16.1721 30.7758 21.9224 
483 2 38.1962 11.05 37.6828 
484 1 0.807313 16.5754 39.9722 
485 1 48.1358 13.5545 33.6734 
486 1 31.3765 25.9004 42.7385 
487 1 34.5003 24.687 39.1358 
488 1 16.1436 11.6328 4.27288 
489 1 16.7141 11.3832 4.37104 
490 1 37.416 18.7034 6.54429 
491 1 42.9304 18.3512 49.3207 
492 1 5.67481 41.0376 47.3091 
493 1 8.75095 42.5217 45.3828 
494 1 49.5586 42.0617 37.8906 
495 1 1.68307 43.923 35.675 
496 1 16.4908 23.1109 33.691 
497 1 14.7391 24.2958 30.9553 
498 1 17.5652 0.881322 14.7681 
499 1 15.8995 1.25019 16.2393 
500 1 8.72031 45.9461 27.246 
501 1 11.3596 5.6301 29.6005 
502 1 46.2522 27.1794 31.7364 
503 1 47.3731 32.3924 38.0463 
504 2 0.861858 32.3456 47.0712 
505 1 36.8397 35.5186 1.46069 
506 1 32.6823 35.6407 3.05928 
507 1 24.1461 46.3354 41.341 
508 1 21.6366 47.255 39.5833 
509 1 7.0884 48.5043 37.7377 
510 1 6.22124 49.8533 38.8734 
511 1 26.6587 11.3469 13.5812 
512 1 27.218 12.1545 16.0525 
513 1 46.9983 31.0996 36.7631 
514 1 46.9269 31.1153 36.9315 
515 1 20.6476 39.5993 11.252 
516 1 21.4809 39.9439 10.5844 
517 1 12.5689 1.339 5.71058 
518 1 10.5866 3.13792 4.69406 
519 1 16.1336 21.7813 47.0201 
520 1 15.9575 20.9769 48.3839 
521 1 48.2969 0.22001 48.7046 
522 1 0.462342 1.14945 0.833751 
523 1 41.8592 44.0053 48.0194 
524 1 1.48229 49.0912 48.2013 
525 2 3.96755 36.2924 17.1721 
526 1 35.8249 17.3759 7.65869 
527 1 33.9634 18.4867 5.1533 
528 1 11.9699 22.9156 37.6933 
529 1 14.429 26.7131 40.9992 
530 1 3.8199 36.9206 19.0674 
531 1 4.56346 35.9294 15.2957 
532 1 2.91883 37.4389 22.8923 
533 1 3.72465 33.3288 17.4881 
534 1 26.3432 26.4007 41.7991 
535 1 22.2837 23.8238 29.6209 
536 1 17.4113 13.6453 6.92857 
537 1 17.0957 10.6067 5.09244 
538 1 41.173 38.0599 20.8975 
539 1 39.4027 41.47 21.8165 
540 1 29.4144 22.416 21.1493 
541 1 30.2152 24.9122 19.9903 
542 1 11.6745 10.838 16.1407 
543 1 12.0873 8.58002 16.3423 
544 1 0.81112 44.6137 36.6356 
545 1 2.42437 42.1173 38.8173 
546 2 43.4295 37.9155 38.5057 
547 1 22.4893 48.323 39.7395 
548 1 24.1072 38.1795 40.7131 
549 1 36.7735 9.64317 37.5961 
550 1 39.3545 9.41751 37.7926 
551 1 47.3968 47.1422 48.0065 
552 1 49.4065 1.45847 0.228079 
553 1 48.913 49.7184 47.8486 
554 1 0.723432 49.78 1.37143 
555 1 1.66089 30.8799 48.1785 
556 1 10.5399 30.5986 46.3237 
557 1 21.4269 33.0531 34.7118 
558 1 18.0225 42.7293 30.6711 
559 1 25.3382 37.2428 41.54 
560 1 20.2362 31.1405 36.1703 
561 1 4.59617 34.4322 17.5538 
562 1 13.7556 31.8644 14.2868 
563 1 24.5448 20.0288 2.76302 
564 1 24.508 18.7825 2.57039 
565 1 34.9847 38.6395 13.2365 
566 1 34.6096 37.9935 20.2444 
567 2 17.9631 49.8033 23.1442 
568 1 4.99414 3.7226 9.66918 
569 1 7.83244 7.33023 20.534 
570 1 16.8859 1.4886 23.2365 
571 1 7.64715 42.449 26.3436 
572 1 17.7118 43.9176 30.8304 
573 1 23.2846 2.28934 38.6044 
574 1 46.103 33.1869 10.9607 
575 1 38.4179 40.1863 9.27822 
576 1 40.3209 29.1394 40.4016 
577 1 38.0385 33.7022 44.1628 
578 1 15.4283 9.91519 16.2486 
579 1 13.8249 8.59625 15.214 
580 1 39.346 39.8842 19.6784 
581 1 43.3848 39.8419 23.8226 
582 1 42.4063 40.2621 21.9636 
583 1 42.4838 39.3991 21.4081 
584 1 16.0676 1.02579 12.4448 
585 1 21.807 42.404 12.0878 
586 1 7.95689 39.9028 47.3325 
587 1 8.47286 40.0895 47.13 
588 2 20.3704 41.5628 10.9762 
589 1 14.6515 11.1867 15.4578 
590 1 15.0459 11.2341 16.6963 
591 1 26.23 38.4092 38.8133 
592 1 26.6435 46.6012 44.0618 
593 1 15.6268 26.9076 42.0186 
594 1 17.5992 28.9191 40.4099 
595 1 33.8565 18.5712 47.9129 
596 1 42.4835 19.3665 49.9848 
597 1 29.6226 4.89222 28.0092 
598 1 23.8936 13.2391 27.4037 
599 1 16.7523 0.746405 24.43 
600 1 18.924 0.0394262 24.8846 
601 1 30.9535 22.6778 21.8186 
602 1 20.5851 32.1414 17.2364 
603 1 44.4189 23.6196 39.0865 
604 1 45.0264 23.2445 38.7706 
605 1 37.2187 9.70038 36.5716 
606 1 37.6361 6.18571 40.1964 
607 1 35.3116 43.0479 39.7258 
608 1 37.4953 44.7276 41.6138 
609 2 13.4545 10.0256 16.5664 
610 1 19.3286 48.9287 24.3186 
611 1 19.4337 48.6664 23.8883 
612 1 3.69878 34.7417 18.4099 
613 1 2.24779 35.4364 16.6075 
614 1 0.235709 1.62463 48.8555 
615 1 1.71414 48.7039 0.00677967 
616 1 24.1643 21.2306 1.58995 
617 1 29.2884 14.687 1.01397 
618 1 48.5169 29.3589 38.6667 
619 1 48.3458 29.9707 36.0108 
620 1 20.1997 20.8433 10.6177 
621 1 19.1067 19.6224 11.8511 
622 1 12.3707 30.7652 11.2582 
623 1 12.1286 31.9764 10.7593 
624 1 31.4336 10.3096 1.56424 
625 1 32.9767 10.9986 4.13153 
626 1 15.1354 42.283 28.2677 
627 1 17.1972 41.98 30.8705 
628 1 45.4211 20.9905 38.3103 
629 1 45.3747 21.3027 37.9285 
630 2 7.99977 0.259295 38.0465 
631 1 24.4118 32.7227 30.0103 
632 1 31.443 32.1474 25.34 
633 1 8.76229 24.9014 24.3436 
634 1 13.6618 22.6851 31.1168 
635 1 26.1379 4.45249 7.81296 
636 1 26.764 4.77732 10.5324 
637 1 16.3046 22.1089 33.2274 
638 1 14.7227 25.3588 31.5781 
639 1 13.2242 14.797 40.8399 
640 1 11.2393 13.0547 40.5213 
641 1 10.9021 27.0169 24.3486 
642 1 9.44952 25.0738 17.9591 
643 1 27.428 4.11895 8.87736 
644 1 31.927 8.9151 4.31427 
645 1 24.3167 35.6717 0.263412 
646 1 19.8951 28.5349 3.03297 
647 1 44.3977 39.5424 39.1599 
648 1 1.25174 43.1551 39.255 
649 1 34.7804 16.2346 46.0757 
650 1 34.1694 15.9247 45.8427 
651 2 39.4699 30.0566 41.9686 
652 1 20.8721 14.7597 42.0192 
653 1 19.3001 15.4741 45.2024 
654 1 20.2631 26.3128 2.5231 
655 1 24.4269 19.5636 49.0605 
656 1 6.94958 37.9951 18.9272 
657 1 5.13763 33.625 18.077 
658 1 37.2263 36.0952 0.563208 
659 1 35.4389 36.2414 1.59963 
660 1 23.0766 30.1895 34.5197 
661 1 16.3026 29.0362 38.7073 
662 1 47.4516 37.0279 23.4512 
663 1 41.449 38.9778 19.751 
664 1 11.9599 11.2131 17.1687 
665 1 17.9014 6.41749 16.0293 
666 1 41.6333 39.4248 22.8833 
667 1 36.8851 43.2692 22.6518 
668 1 14.1023 8.18343 17.0089 
669 1 14.898 9.50995 17.8547 
670 1 40.6056 31.5657 42.6442 
671 1 39.7256 29.4135 43.8455 
672 2 11.8631 1.81486 3.89834 
673 1 7.51144 13.9202 19.7962 
674 1 10.8824 13.3623 22.9287 
675 1 12.7845 36.8933 40.2699 
676 1 10.9807 34.8192 39.6998 
677 1 1.23434 33.3623 45.3859 
678 1 8.65973 34.258 36.5403 
679 1 7.54882 35.5758 48.7558 
680 1 9.15423 31.2824 49.8666 
681 1 39.8029 5.03803 38.5818 
682 1 37.9035 10.2545 35.8687 
683 1 24.3406 44.8503 39.8574 
684 1 27.9789 39.7396 48.7583 
685 1 12.4277 43.1351 48.4576 
686 1 17.4473 39.9089 49.8026 
687 1 23.9429 18.1458 1.29366 
688 1 26.8042 19.9699 2.05846 
689 1 20.2129 25.5036 5.02492 
690 1 15.092 23.1571 4.66092 
691 1 17.6433 44.3198 28.1841 
692 1 17.8667 43.6643 27.9734 
693 2 7.29426 41.4135 46.1963 
694 1 36.109 40.492 15.1197 
695 1 36.0168 39.097 12.1368 
696 1 41.27 41.6542 21.9934 
697 1 39.5052 40.767 22.7545 
698 1 0.958607 44.3967 38.4255 
699 1 46.5554 37.3633 35.9139 
700 1 8.80394 40.114 17.6836 
701 1 7.889 46.2565 25.4461 
702 1 42.0299 21.8227 37.6907 
703 1 49.7378 29.407 38.2908 
704 1 39.6346 23.0294 42.2973 
705 1 47.9234 25.0066 42.2352 
706 1 30.4679 17.1719 40.3204 
707 1 27.5986 19.2474 40.9497 
708 1 25.4514 33.8991 48.8803 
709 1 24.049 34.2018 49.4455 
710 1 18.3119 32.5232 13.5556 
711 1 20.721 41.1788 9.04265 
712 1 11.2151 15.1034 43.6054 
713 1 10.129 13.2645 42.2387 
714 2 30.289 33.653 25.979 
715 1 21.799 2.66634 13.8046 
716 1 28.7739 12.3564 12.5003 
717 1 34.7278 8.81056 2.38638 
718 1 32.3918 10.6397 1.08219 
719 1 16.8855 27.8887 42.0255 
720 1 16.2292 25.8909 40.1722 
721 1 29.4929 27.0266 41.4672 
722 1 24.8804 34.972 39.1183 
723 1 7.06497 2.01163 38.3045 
724 1 16.8122 47.9229 41.3101 
725 1 9.19751 23.8703 24.3035 
726 1 9.51259 26.6902 25.0812 
727 1 16.6445 23.3883 31.975 
728 1 20.0839 29.5044 33.9892 
729 1 42.1565 36.3863 38.2804 
730 1 48.2079 32.833 36.9386 
731 1 8.44707 39.415 39.334 
732 1 7.88364 40.6869 44.4232 
733 1 24.8203 47.9829 38.7017 
734 1 20.1218 45.8627 33.844 
735 2 22.5369 23.5353 27.6544 
736 1 34.4445 12.8831 41.7622 
737 1 31.7369 16.3551 46.862 
738 1 8.34682 42.9125 24.831 
739 1 8.44413 40.312 23.788 
740 1 8.21141 13.1993 22.5634 
741 1 8.1579 13.5567 22.4251 
742 1 8.23433 44.0363 9.4127 
743 1 0.931044 36.6357 11.6608 
744 1 6.84925 45.9193 25.7497 
745 1 7.20216 46.0884 26.7556 
746 1 13.1058 22.1738 32.519 
747 1 6.26416 23.3141 35.3509 
748 1 2.85279 4.07289 10.306 
749 1 5.31347 6.56587 8.75946 
750 1 37.9946 12.3413 39.1993 
751 1 36.332 13.3057 38.1096 
752 1 33.9196 36.1517 49.5572 
753 1 36.1697 35.5726 48.0864 
754 1 4.79761 22.0493 34.2163 
755 1 5.05401 21.9181 33.5584 
756 2 10.6911 25.0887 24.8458 
757 1 18.178 38.9811 49.9235 
758 1 26.6716 34.3527 2.44514 
759 1 49.3861 13.3016 34.9928 
760 1 47.6438 16.7408 35.4664 
761 1 34.0096 17.0616 49.5272 
762 1 34.6026 17.9644 48.6794 
763 1 22.826 22.6837 29.4435 
764 1 23.7638 22.5641 26.4045 
765 1 0.472356 31.4108 48.7991 
766 1 0.629109 31.579 48.9067 
767 1 17.3215 28.3662 38.9594 
768 1 20.2325 31.0056 34.5687 
769 1 44.4178 20.9019 40.4825 
770 1 42.8183 19.0568 46.8287 
771 1 33.8734 10.5854 1.25669 
772 1 32.5073 15.7865 46.1426 
773 1 28.8433 32.2895 25.7331 
774 1 28.9913 33.5633 27.5013 
775 1 43.9179 19.3847 16.2867 
776 1 42.231 22.1289 16.0534 
777 2 27.692 27.3107 40.6283 
778 1 8.98011 44.9952 27.838 
779 1 6.16975 43.9608 26.5619 
780 1 22.093 23.9889 25.7554 
781 1 23.7972 24.7522 26.685 
782 1 19.5777 0.666791 23.9531 
783 1 14.8645 43.3919 28.3231 
784 1 17.7629 13.2803 5.3991 
785 1 17.7005 11.1096 7.3215 
786 1 14.1078 33.7957 11.5234 
787 1 18.7543 41.7316 9.80411 
788 1 18.7413 40.4347 11.2675 
789 1 22.5345 35.9113 12.9416 
790 1 8.87453 40.4143 45.4751 
791 1 10.1122 44.6324 6.46804 
792 1 46.4104 34.3348 8.25937 
793 1 1.22618 32.7423 7.05769 
794 1 21.0676 39.5074 41.5502 
795 1 27.0331 36.8284 40.2567 
796 1 13.2243 0.789081 4.94953 
797 1 17.3366 2.58962 13.3082 
798 2 16.3627 12.0993 6.20794 
799 1 32.9908 21.6836 3.33734 
800 1 32.9403 15.5285 49.1903 
801 1 36.5527 12.9998 1.47408 
802 1 34.4215 10.8143 2.21441 
803 1 14.8341 20.0378 46.7985 
804 1 13.2776 19.9845 47.5887 
805 1 29.7801 19.0354 40.7872 
806 1 28.5071 17.1112 42.4833 
807 1 37.6978 44.8664 45.9981 
808 1 37.8185 48.4001 45.6096 
809 1 17.2579 39.1586 35.2526 
810 1 25.1234 35.3945 40.8913 
811 1 21.9882 30.2563 4.07979 
812 1 19.4682 26.5689 6.04508 
813 1 18.0221 11.2063 5.53035 
814 1 15.6869 10.6636 4.98679 
815 1 22.7383 25.0444 26.3545 
816 1 21.2267 29.6747 33.0154 
817 1 6.12197 42.6801 47.2078 
818 1 7.89567 43.2015 46.8653 
819 2 20.8501 15.2897 43.9501 
820 1 44.5486 36.497 39.3685 
821 1 49.2092 37.5767 34.1612 
822 1 0.349194 31.7246 45.2378 
823 1 1.67478 31.9862 48.8651 
824 1 17.4026 26.1472 4.15628 
825 1 23.9098 22.7069 4.5129 
826 1 31.2518 15.8538 12.8464 
827 1 28.0562 14.7339 14.1659 
828 1 2.80201 35.675 18.6786 
829 1 4.01353 37.9852 18.2407 
830 1 13.901 17.8134 41.4191 
831 1 9.84582 14.2233 40.48 
832 1 7.88042 45.1193 28.0078 
833 1 12.5035 37.9559 25.2609 
834 1 0.098931 30.6753 47.8708 
835 1 1.79699 33.7108 48.1971 
836 1 31.1197 8.77555 2.35273 
837 1 34.0485 7.94713 2.81207 
838 1 23.5129 30.8839 32.5446 
839 1 21.5282 31.6101 35.5202 
840 2 21.8915 31.4841 33.5558 
841 1 8.90783 14.2703 21.9983 
842 1 2.12969 12.5003 16.7697 
843 1 39.3882 28.0881 41.606 
844 1 36.8531 26.0731 36.2049 
845 1 17.5357 38.7054 1.15282 
846 1 23.5561 30.267 6.56918 
847 1 8.95716 14.3841 25.8979 
848 1 7.83694 14.9514 24.9845 
849 1 7.92637 6.14583 29.2351 
850 1 8.04072 6.74143 29.0425 
851 1 37.7465 31.0698 42.0521 
852 1 37.5582 30.4085 41.4911 
853 1 21.6268 21.7512 27.6477 
854 1 24.3525 22.698 27.7704 
855 1 41.9597 18.8207 48.608 
856 1 44.4972 19.0747 46.9446 
857 1 8.13222 39.5934 46.1829 
858 1 7.54013 42.1972 44.3695 
859 1 1.17044 37.0791 33.8687 
860 1 0.570845 36.211 36.285 
861 2 32.9129 9.59251 2.70775 
862 1 48.0179 16.1988 33.8073 
863 1 49.8367 15.7479 35.0578 
864 1 17.4405 20.5773 12.3002 
865 1 20.1437 20.0589 12.9514 
866 1 33.6545 30.3893 3.89779 
867 1 30.393 32.8403 11.348 
868 1 15.6228 42.6679 31.0987 
869 1 14.6254 43.7305 29.4425 
870 1 7.51495 18.9533 25.7863 
871 1 8.93461 12.6943 25.3065 
872 1 2.04669 49.8556 49.8203 
873 1 4.5096 3.4093 8.47559 
874 1 40.6458 28.4602 41.6728 
875 1 44.5192 22.7655 37.3308 
876 1 14.5319 28.9062 39.2617 
877 1 13.7582 20.2094 46.479 
878 1 12.9811 23.6335 31.8571 
879 1 15.2323 21.6565 31.5901 
880 1 16.7754 29.5823 39.7388 
881 1 12.0258 33.6888 41.4349 
882 2 29.743 24.2714 21.8275 
883 1 10.4919 8.04969 29.3137 
884 1 9.09154 8.12878 29.2327 
885 1 10.7689 16.5693 41.3112 
886 1 9.86308 14.8027 42.9357 
887 1 16.0153 41.2644 29.0131 
888 1 15.1465 41.7318 29.2427 
889 1 18.8558 28.1933 2.55196 
890 1 18.1337 25.3054 4.25142 
891 1 12.2584 23.8451 24.7668 
892 1 11.5182 24.4761 23.1284 
893 1 12.8855 16.0138 41.3977 
894 1 9.67215 15.6995 41.4718 
895 1 18.9416 29.5726 16.8798 
896 1 18.1326 21.9913 13.8256 
897 1 36.4413 20.6424 6.57714 
898 1 36.1415 20.3104 7.70085 
899 1 9.16553 42.1122 46.3509 
900 1 11.643 36.1981 43.3117 
901 1 12.3256 25.1825 25.9986 
902 1 10.4337 26.3627 26.3691 
903 2 14.2442 21.7363 47.6797 
904 1 45.1004 20.5397 39.4811 
905 1 44.3157 20.0699 38.0403 
906 1 21.1202 26.7152 4.68379 
907 1 17.4816 27.0869 5.08236 
908 1 11.213 14.6675 24.3512 
909 1 10.7037 7.3481 31.6642 
910 1 11.5365 31.7802 13.1422 
911 1 20.181 28.6418 4.67135 
912 1 34.5788 22.5602 39.1104 
913 1 28.9139 18.4574 42.2407 
914 1 22.9884 33.0896 34.0388 
915 1 20.5949 32.8927 32.9696 
916 1 22.7221 25.5116 27.3944 
917 1 22.1214 25.4483 27.2327 
918 1 18.9144 21.1681 10.207 
919 1 18.2281 22.6369 10.7039 
920 1 28.0755 25.3683 40.3059 
921 1 34.0745 23.6649 36.5529 
922 1 27.0791 28.9324 41.6252 
923 1 27.9853 27.7046 42.5715 
924 2 5.96109 20.4646 34.5942 
925 1 32.8558 39.9489 10.2351 
926 1 38.1887 35.7894 16.9592 
927 1 42.5337 37.3071 36.8213 
928 1 44.94 37.5076 39.7544 
929 1 12.1914 27.6935 3.74744 
930 1 15.8305 22.4289 48.6861 
931 1 28.17 11.0881 13.1654 
932 1 16.7567 12.3393 12.2846 
933 1 21.9586 46.7103 38.2277 
934 1 22.0828 47.6869 38.5623 
935 1 30.761 3.46125 31.4935 
936 1 28.4396 4.50126 28.4986 
937 1 19.8695 28.8845 16.6921 
938 1 21.2587 29.7687 19.7442 
939 1 23.2434 1.49972 36.1553 
940 1 24.4304 4.98735 38.8106 
941 1 9.86723 44.5391 25.2572 
942 1 16.5847 48.8664 24.2553 
943 1 7.9058 7.34063 30.6798 
944 1 9.19424 6.47292 28.2576 
945 2 11.6683 35.6588 41.3823 
946 1 9.06975 42.9754 27.1654 
947 1 15.7983 43.9168 31.0867 
948 1 15.5878 20.2531 47.5985 
949 1 19.615 16.3524 42.7865 
950 1 9.16519 39.2516 47.9464 
951 1 7.81698 29.974 47.2181 
952 1 21.0709 27.1295 3.34377 
953 1 17.9581 26.7012 45.9958 
954 1 5.06531 37.0511 15.6783 
955 1 9.64523 33.5151 9.90569 
956 1 5.00396 6.63621 9.82881 
957 1 5.68563 4.53274 8.61446 
958 1 33.9942 37.9348 12.7209 
959 1 35.3771 41.2061 12.1205 
960 1 35.0941 19.4269 4.53926 
961 1 28.8223 14.2637 47.6415 
962 1 9.7973 32.4365 48.6001 
963 1 14.4384 37.6505 49.8142 
964 1 19.5648 27.1328 2.13363 
965 1 18.8176 25.1612 3.3641 
966 2 8.08189 44.3933 26.153 
967 1 28.024 13.3741 16.1673 
968 1 27.473 10.8081 14.5549 
969 1 26.5349 3.29836 7.72165 